
 **** DERIVATIVE DATABASE ****    
+DDB, Version number    100401

 phonon                                                                                                                                                                                                                                                                  

    usepaw         0
     natom         3
      nkpt       144
    nsppol         1
      nsym        12
    ntypat         2
    occopt         1
     nband        20
     acell  0.59000000000000D+01  0.59000000000000D+01  0.20000000000000D+02
       amu  0.95940000000000D+02  0.32066000000000D+02
   dilatmx  0.10000000000000D+01
      ecut  0.30000000000000D+02
    ecutsm  0.00000000000000D+00
     intxc         0
      iscf         7
       ixc         1
       kpt  0.00000000000000D+00  0.00000000000000D+00  0.00000000000000D+00
            0.83333333333333D-01  0.00000000000000D+00  0.00000000000000D+00
            0.16666666666667D+00  0.00000000000000D+00  0.00000000000000D+00
            0.25000000000000D+00  0.00000000000000D+00  0.00000000000000D+00
            0.33333333333333D+00  0.00000000000000D+00  0.00000000000000D+00
            0.41666666666667D+00  0.00000000000000D+00  0.00000000000000D+00
            0.50000000000000D+00  0.00000000000000D+00  0.00000000000000D+00
           -0.41666666666667D+00  0.00000000000000D+00  0.00000000000000D+00
           -0.33333333333333D+00  0.00000000000000D+00  0.00000000000000D+00
           -0.25000000000000D+00  0.00000000000000D+00  0.00000000000000D+00
           -0.16666666666667D+00  0.00000000000000D+00  0.00000000000000D+00
           -0.83333333333333D-01  0.00000000000000D+00  0.00000000000000D+00
            0.00000000000000D+00  0.83333333333333D-01  0.00000000000000D+00
            0.83333333333333D-01  0.83333333333333D-01  0.00000000000000D+00
            0.16666666666667D+00  0.83333333333333D-01  0.00000000000000D+00
            0.25000000000000D+00  0.83333333333333D-01  0.00000000000000D+00
            0.33333333333333D+00  0.83333333333333D-01  0.00000000000000D+00
            0.41666666666667D+00  0.83333333333333D-01  0.00000000000000D+00
            0.50000000000000D+00  0.83333333333333D-01  0.00000000000000D+00
           -0.41666666666667D+00  0.83333333333333D-01  0.00000000000000D+00
           -0.33333333333333D+00  0.83333333333333D-01  0.00000000000000D+00
           -0.25000000000000D+00  0.83333333333333D-01  0.00000000000000D+00
           -0.16666666666667D+00  0.83333333333333D-01  0.00000000000000D+00
           -0.83333333333333D-01  0.83333333333333D-01  0.00000000000000D+00
            0.00000000000000D+00  0.16666666666667D+00  0.00000000000000D+00
            0.83333333333333D-01  0.16666666666667D+00  0.00000000000000D+00
            0.16666666666667D+00  0.16666666666667D+00  0.00000000000000D+00
            0.25000000000000D+00  0.16666666666667D+00  0.00000000000000D+00
            0.33333333333333D+00  0.16666666666667D+00  0.00000000000000D+00
            0.41666666666667D+00  0.16666666666667D+00  0.00000000000000D+00
            0.50000000000000D+00  0.16666666666667D+00  0.00000000000000D+00
           -0.41666666666667D+00  0.16666666666667D+00  0.00000000000000D+00
           -0.33333333333333D+00  0.16666666666667D+00  0.00000000000000D+00
           -0.25000000000000D+00  0.16666666666667D+00  0.00000000000000D+00
           -0.16666666666667D+00  0.16666666666667D+00  0.00000000000000D+00
           -0.83333333333333D-01  0.16666666666667D+00  0.00000000000000D+00
            0.00000000000000D+00  0.25000000000000D+00  0.00000000000000D+00
            0.83333333333333D-01  0.25000000000000D+00  0.00000000000000D+00
            0.16666666666667D+00  0.25000000000000D+00  0.00000000000000D+00
            0.25000000000000D+00  0.25000000000000D+00  0.00000000000000D+00
            0.33333333333333D+00  0.25000000000000D+00  0.00000000000000D+00
            0.41666666666667D+00  0.25000000000000D+00  0.00000000000000D+00
            0.50000000000000D+00  0.25000000000000D+00  0.00000000000000D+00
           -0.41666666666667D+00  0.25000000000000D+00  0.00000000000000D+00
           -0.33333333333333D+00  0.25000000000000D+00  0.00000000000000D+00
           -0.25000000000000D+00  0.25000000000000D+00  0.00000000000000D+00
           -0.16666666666667D+00  0.25000000000000D+00  0.00000000000000D+00
           -0.83333333333333D-01  0.25000000000000D+00  0.00000000000000D+00
            0.00000000000000D+00  0.33333333333333D+00  0.00000000000000D+00
            0.83333333333333D-01  0.33333333333333D+00  0.00000000000000D+00
            0.16666666666667D+00  0.33333333333333D+00  0.00000000000000D+00
            0.25000000000000D+00  0.33333333333333D+00  0.00000000000000D+00
            0.33333333333333D+00  0.33333333333333D+00  0.00000000000000D+00
            0.41666666666667D+00  0.33333333333333D+00  0.00000000000000D+00
            0.50000000000000D+00  0.33333333333333D+00  0.00000000000000D+00
           -0.41666666666667D+00  0.33333333333333D+00  0.00000000000000D+00
           -0.33333333333333D+00  0.33333333333333D+00  0.00000000000000D+00
           -0.25000000000000D+00  0.33333333333333D+00  0.00000000000000D+00
           -0.16666666666667D+00  0.33333333333333D+00  0.00000000000000D+00
           -0.83333333333333D-01  0.33333333333333D+00  0.00000000000000D+00
            0.00000000000000D+00  0.41666666666667D+00  0.00000000000000D+00
            0.83333333333333D-01  0.41666666666667D+00  0.00000000000000D+00
            0.16666666666667D+00  0.41666666666667D+00  0.00000000000000D+00
            0.25000000000000D+00  0.41666666666667D+00  0.00000000000000D+00
            0.33333333333333D+00  0.41666666666667D+00  0.00000000000000D+00
            0.41666666666667D+00  0.41666666666667D+00  0.00000000000000D+00
            0.50000000000000D+00  0.41666666666667D+00  0.00000000000000D+00
           -0.41666666666667D+00  0.41666666666667D+00  0.00000000000000D+00
           -0.33333333333333D+00  0.41666666666667D+00  0.00000000000000D+00
           -0.25000000000000D+00  0.41666666666667D+00  0.00000000000000D+00
           -0.16666666666667D+00  0.41666666666667D+00  0.00000000000000D+00
           -0.83333333333333D-01  0.41666666666667D+00  0.00000000000000D+00
            0.00000000000000D+00  0.50000000000000D+00  0.00000000000000D+00
            0.83333333333333D-01  0.50000000000000D+00  0.00000000000000D+00
            0.16666666666667D+00  0.50000000000000D+00  0.00000000000000D+00
            0.25000000000000D+00  0.50000000000000D+00  0.00000000000000D+00
            0.33333333333333D+00  0.50000000000000D+00  0.00000000000000D+00
            0.41666666666667D+00  0.50000000000000D+00  0.00000000000000D+00
            0.50000000000000D+00  0.50000000000000D+00  0.00000000000000D+00
           -0.41666666666667D+00  0.50000000000000D+00  0.00000000000000D+00
           -0.33333333333333D+00  0.50000000000000D+00  0.00000000000000D+00
           -0.25000000000000D+00  0.50000000000000D+00  0.00000000000000D+00
           -0.16666666666667D+00  0.50000000000000D+00  0.00000000000000D+00
           -0.83333333333333D-01  0.50000000000000D+00  0.00000000000000D+00
            0.00000000000000D+00 -0.41666666666667D+00  0.00000000000000D+00
            0.83333333333333D-01 -0.41666666666667D+00  0.00000000000000D+00
            0.16666666666667D+00 -0.41666666666667D+00  0.00000000000000D+00
            0.25000000000000D+00 -0.41666666666667D+00  0.00000000000000D+00
            0.33333333333333D+00 -0.41666666666667D+00  0.00000000000000D+00
            0.41666666666667D+00 -0.41666666666667D+00  0.00000000000000D+00
            0.50000000000000D+00 -0.41666666666667D+00  0.00000000000000D+00
           -0.41666666666667D+00 -0.41666666666667D+00  0.00000000000000D+00
           -0.33333333333333D+00 -0.41666666666667D+00  0.00000000000000D+00
           -0.25000000000000D+00 -0.41666666666667D+00  0.00000000000000D+00
           -0.16666666666667D+00 -0.41666666666667D+00  0.00000000000000D+00
           -0.83333333333333D-01 -0.41666666666667D+00  0.00000000000000D+00
            0.00000000000000D+00 -0.33333333333333D+00  0.00000000000000D+00
            0.83333333333333D-01 -0.33333333333333D+00  0.00000000000000D+00
            0.16666666666667D+00 -0.33333333333333D+00  0.00000000000000D+00
            0.25000000000000D+00 -0.33333333333333D+00  0.00000000000000D+00
            0.33333333333333D+00 -0.33333333333333D+00  0.00000000000000D+00
            0.41666666666667D+00 -0.33333333333333D+00  0.00000000000000D+00
            0.50000000000000D+00 -0.33333333333333D+00  0.00000000000000D+00
           -0.41666666666667D+00 -0.33333333333333D+00  0.00000000000000D+00
           -0.33333333333333D+00 -0.33333333333333D+00  0.00000000000000D+00
           -0.25000000000000D+00 -0.33333333333333D+00  0.00000000000000D+00
           -0.16666666666667D+00 -0.33333333333333D+00  0.00000000000000D+00
           -0.83333333333333D-01 -0.33333333333333D+00  0.00000000000000D+00
            0.00000000000000D+00 -0.25000000000000D+00  0.00000000000000D+00
            0.83333333333333D-01 -0.25000000000000D+00  0.00000000000000D+00
            0.16666666666667D+00 -0.25000000000000D+00  0.00000000000000D+00
            0.25000000000000D+00 -0.25000000000000D+00  0.00000000000000D+00
            0.33333333333333D+00 -0.25000000000000D+00  0.00000000000000D+00
            0.41666666666667D+00 -0.25000000000000D+00  0.00000000000000D+00
            0.50000000000000D+00 -0.25000000000000D+00  0.00000000000000D+00
           -0.41666666666667D+00 -0.25000000000000D+00  0.00000000000000D+00
           -0.33333333333333D+00 -0.25000000000000D+00  0.00000000000000D+00
           -0.25000000000000D+00 -0.25000000000000D+00  0.00000000000000D+00
           -0.16666666666667D+00 -0.25000000000000D+00  0.00000000000000D+00
           -0.83333333333333D-01 -0.25000000000000D+00  0.00000000000000D+00
            0.00000000000000D+00 -0.16666666666667D+00  0.00000000000000D+00
            0.83333333333333D-01 -0.16666666666667D+00  0.00000000000000D+00
            0.16666666666667D+00 -0.16666666666667D+00  0.00000000000000D+00
            0.25000000000000D+00 -0.16666666666667D+00  0.00000000000000D+00
            0.33333333333333D+00 -0.16666666666667D+00  0.00000000000000D+00
            0.41666666666667D+00 -0.16666666666667D+00  0.00000000000000D+00
            0.50000000000000D+00 -0.16666666666667D+00  0.00000000000000D+00
           -0.41666666666667D+00 -0.16666666666667D+00  0.00000000000000D+00
           -0.33333333333333D+00 -0.16666666666667D+00  0.00000000000000D+00
           -0.25000000000000D+00 -0.16666666666667D+00  0.00000000000000D+00
           -0.16666666666667D+00 -0.16666666666667D+00  0.00000000000000D+00
           -0.83333333333333D-01 -0.16666666666667D+00  0.00000000000000D+00
            0.00000000000000D+00 -0.83333333333333D-01  0.00000000000000D+00
            0.83333333333333D-01 -0.83333333333333D-01  0.00000000000000D+00
            0.16666666666667D+00 -0.83333333333333D-01  0.00000000000000D+00
            0.25000000000000D+00 -0.83333333333333D-01  0.00000000000000D+00
            0.33333333333333D+00 -0.83333333333333D-01  0.00000000000000D+00
            0.41666666666667D+00 -0.83333333333333D-01  0.00000000000000D+00
            0.50000000000000D+00 -0.83333333333333D-01  0.00000000000000D+00
           -0.41666666666667D+00 -0.83333333333333D-01  0.00000000000000D+00
           -0.33333333333333D+00 -0.83333333333333D-01  0.00000000000000D+00
           -0.25000000000000D+00 -0.83333333333333D-01  0.00000000000000D+00
           -0.16666666666667D+00 -0.83333333333333D-01  0.00000000000000D+00
           -0.83333333333333D-01 -0.83333333333333D-01  0.00000000000000D+00
    kptnrm  0.10000000000000D+01
     ngfft        30   30  100
    nspden         1
   nspinor         1
       occ  0.20000000000000D+01  0.20000000000000D+01  0.20000000000000D+01
            0.20000000000000D+01  0.20000000000000D+01  0.20000000000000D+01
            0.20000000000000D+01  0.20000000000000D+01  0.20000000000000D+01
            0.20000000000000D+01  0.20000000000000D+01  0.20000000000000D+01
            0.20000000000000D+01  0.00000000000000D+00  0.00000000000000D+00
            0.00000000000000D+00  0.00000000000000D+00  0.00000000000000D+00
            0.00000000000000D+00  0.00000000000000D+00
     rprim  0.10000000000000D+01  0.00000000000000D+00  0.00000000000000D+00
           -0.50000000000000D+00  0.86602540378400D+00  0.00000000000000D+00
            0.00000000000000D+00  0.00000000000000D+00  0.10000000000000D+01
     sciss  0.00000000000000D+00
    spinat  0.00000000000000D+00  0.00000000000000D+00  0.00000000000000D+00
            0.00000000000000D+00  0.00000000000000D+00  0.00000000000000D+00
            0.00000000000000D+00  0.00000000000000D+00  0.00000000000000D+00
    symafm         1    1    1    1    1    1    1    1    1    1    1    1
    symrel         1    0    0    0    1    0    0    0    1
                   0   -1    0   -1    0    0    0    0   -1
                  -1   -1    0    1    0    0    0    0   -1
                  -1    0    0    1    1    0    0    0    1
                   0    1    0   -1   -1    0    0    0    1
                   1    1    0    0   -1    0    0    0   -1
                   1    0    0    0    1    0    0    0   -1
                   0   -1    0   -1    0    0    0    0    1
                  -1   -1    0    1    0    0    0    0    1
                  -1    0    0    1    1    0    0    0   -1
                   0    1    0   -1   -1    0    0    0   -1
                   1    1    0    0   -1    0    0    0    1
     tnons  0.00000000000000D+00  0.00000000000000D+00  0.00000000000000D+00
            0.00000000000000D+00  0.00000000000000D+00  0.00000000000000D+00
           -0.99999997171807D-09  0.00000000000000D+00  0.00000000000000D+00
           -0.99999997171807D-09  0.00000000000000D+00  0.00000000000000D+00
            0.00000000000000D+00  0.10000000827404D-08  0.00000000000000D+00
            0.00000000000000D+00  0.10000000827404D-08  0.00000000000000D+00
            0.00000000000000D+00  0.00000000000000D+00  0.00000000000000D+00
            0.00000000000000D+00  0.00000000000000D+00  0.00000000000000D+00
           -0.99999997171807D-09  0.00000000000000D+00  0.00000000000000D+00
           -0.99999997171807D-09  0.00000000000000D+00  0.00000000000000D+00
            0.00000000000000D+00  0.10000000827404D-08  0.00000000000000D+00
            0.00000000000000D+00  0.10000000827404D-08  0.00000000000000D+00
    tolwfr  0.10000000000000D+01
   tphysel  0.00000000000000D+00
    tsmear  0.40000000000000D-01
     typat         1    2    2
       wtk  0.69444444444444D-02  0.69444444444444D-02  0.69444444444444D-02
            0.69444444444444D-02  0.69444444444444D-02  0.69444444444444D-02
            0.69444444444444D-02  0.69444444444444D-02  0.69444444444444D-02
            0.69444444444444D-02  0.69444444444444D-02  0.69444444444444D-02
            0.69444444444444D-02  0.69444444444444D-02  0.69444444444444D-02
            0.69444444444444D-02  0.69444444444444D-02  0.69444444444444D-02
            0.69444444444444D-02  0.69444444444444D-02  0.69444444444444D-02
            0.69444444444444D-02  0.69444444444444D-02  0.69444444444444D-02
            0.69444444444444D-02  0.69444444444444D-02  0.69444444444444D-02
            0.69444444444444D-02  0.69444444444444D-02  0.69444444444444D-02
            0.69444444444444D-02  0.69444444444444D-02  0.69444444444444D-02
            0.69444444444444D-02  0.69444444444444D-02  0.69444444444444D-02
            0.69444444444444D-02  0.69444444444444D-02  0.69444444444444D-02
            0.69444444444444D-02  0.69444444444444D-02  0.69444444444444D-02
            0.69444444444444D-02  0.69444444444444D-02  0.69444444444444D-02
            0.69444444444444D-02  0.69444444444444D-02  0.69444444444444D-02
            0.69444444444444D-02  0.69444444444444D-02  0.69444444444444D-02
            0.69444444444444D-02  0.69444444444444D-02  0.69444444444444D-02
            0.69444444444444D-02  0.69444444444444D-02  0.69444444444444D-02
            0.69444444444444D-02  0.69444444444444D-02  0.69444444444444D-02
            0.69444444444444D-02  0.69444444444444D-02  0.69444444444444D-02
            0.69444444444444D-02  0.69444444444444D-02  0.69444444444444D-02
            0.69444444444444D-02  0.69444444444444D-02  0.69444444444444D-02
            0.69444444444444D-02  0.69444444444444D-02  0.69444444444444D-02
            0.69444444444444D-02  0.69444444444444D-02  0.69444444444444D-02
            0.69444444444444D-02  0.69444444444444D-02  0.69444444444444D-02
            0.69444444444444D-02  0.69444444444444D-02  0.69444444444444D-02
            0.69444444444444D-02  0.69444444444444D-02  0.69444444444444D-02
            0.69444444444444D-02  0.69444444444444D-02  0.69444444444444D-02
            0.69444444444444D-02  0.69444444444444D-02  0.69444444444444D-02
            0.69444444444444D-02  0.69444444444444D-02  0.69444444444444D-02
            0.69444444444444D-02  0.69444444444444D-02  0.69444444444444D-02
            0.69444444444444D-02  0.69444444444444D-02  0.69444444444444D-02
            0.69444444444444D-02  0.69444444444444D-02  0.69444444444444D-02
            0.69444444444444D-02  0.69444444444444D-02  0.69444444444444D-02
            0.69444444444444D-02  0.69444444444444D-02  0.69444444444444D-02
            0.69444444444444D-02  0.69444444444444D-02  0.69444444444444D-02
            0.69444444444444D-02  0.69444444444444D-02  0.69444444444444D-02
            0.69444444444444D-02  0.69444444444444D-02  0.69444444444444D-02
            0.69444444444444D-02  0.69444444444444D-02  0.69444444444444D-02
            0.69444444444444D-02  0.69444444444444D-02  0.69444444444444D-02
            0.69444444444444D-02  0.69444444444444D-02  0.69444444444444D-02
            0.69444444444444D-02  0.69444444444444D-02  0.69444444444444D-02
            0.69444444444444D-02  0.69444444444444D-02  0.69444444444444D-02
            0.69444444444444D-02  0.69444444444444D-02  0.69444444444444D-02
            0.69444444444444D-02  0.69444444444444D-02  0.69444444444444D-02
            0.69444444444444D-02  0.69444444444444D-02  0.69444444444444D-02
            0.69444444444444D-02  0.69444444444444D-02  0.69444444444444D-02
      xred  0.33333333300000D+00  0.66666666700000D+00  0.00000000000000D+00
            0.66666666633333D+00  0.33333333366667D+00  0.15093732183000D+00
            0.66666666633333D+00  0.33333333366667D+00 -0.15093732183000D+00
     znucl  0.42000000000000D+02  0.16000000000000D+02
      zion  0.14000000000000D+02  0.60000000000000D+01
 
  Description of the potentials (KB energies)
  vrsio8 (for pseudopotentials)=100401
  usepaw =  0
  dimekb = 10       lmnmax= 10
  Atom type=    1   pspso=  0   nekb=   6
  iln lpsang iproj  ekb(:)
     1     0     1    -1.0856880E+00  0.0000000E+00  0.0000000E+00  0.0000000E+00
                       0.0000000E+00  0.0000000E+00
     2     0     2     0.0000000E+00  7.2185703E-01  0.0000000E+00  0.0000000E+00
                       0.0000000E+00  0.0000000E+00
     3     1     1     0.0000000E+00  0.0000000E+00 -2.0834464E-01  0.0000000E+00
                       0.0000000E+00  0.0000000E+00
     4     1     2     0.0000000E+00  0.0000000E+00  0.0000000E+00  1.3056240E-02
                       0.0000000E+00  0.0000000E+00
     5     2     1     0.0000000E+00  0.0000000E+00  0.0000000E+00  0.0000000E+00
                      -2.5631646E-01  0.0000000E+00
     6     2     2     0.0000000E+00  0.0000000E+00  0.0000000E+00  0.0000000E+00
                      -2.5631646E-01  0.0000000E+00
  Atom type=    2   pspso=  0   nekb=   3
  iln lpsang iproj  ekb(:)
     1     0     1     6.2932392E-01  0.0000000E+00  0.0000000E+00
     2     0     2     0.0000000E+00  1.4478420E+00  0.0000000E+00
     3     1     1     0.0000000E+00  0.0000000E+00  2.9975364E-01
 
 **** Database of total energy derivatives ****
 Number of data blocks=   19
  
 2nd derivatives (non-stat.)  - # elements :      81
 qpt  1.66666667E-01  8.33333333E-02  0.00000000E+00   1.0
   1   1   1   1  0.85194927985449D+01 -0.54120430563265D-14
   2   1   1   1 -0.40676632084474D+01 -0.25527797764242D+00
   3   1   1   1 -0.29921697851032D-14  0.94744141977692D-13
   1   2   1   1 -0.27533583060473D+01 -0.79578314831901D+00
   2   2   1   1  0.16809214385885D+01  0.19199786296967D+00
   3   2   1   1 -0.16555250664580D+01  0.30523192603007D+01
   1   3   1   1 -0.27533583060471D+01 -0.79578314831963D+00
   2   3   1   1  0.16809214385884D+01  0.19199786296968D+00
   3   3   1   1  0.16555250664585D+01 -0.30523192603016D+01
   1   1   2   1 -0.40676632476873D+01  0.25527811457474D+00
   2   1   2   1  0.82660985366824D+01 -0.16537190166278D-13
   3   1   2   1  0.22347739642215D-13 -0.18987946644906D-13
   1   2   2   1  0.16906076026644D+01  0.12094691554980D+00
   2   2   2   1 -0.30974905805881D+01  0.36155565215918D-01
   3   2   2   1  0.40764215135030D+00  0.17439274932159D+01
   1   3   2   1  0.16906076026644D+01  0.12094691554981D+00
   2   3   2   1 -0.30974905805880D+01  0.36155565215996D-01
   3   3   2   1 -0.40764215135019D+00 -0.17439274932168D+01
   1   1   3   1 -0.78408661460107D-04  0.20158892127885D-04
   2   1   3   1 -0.88725461524084D-04  0.28428086347265D-04
   3   1   3   1  0.11604019019852D+03  0.33738680463103D-13
   1   2   3   1 -0.16018227851898D+01  0.34723618319492D+01
   2   2   3   1  0.27490914463794D+00  0.19376852655927D+01
   3   2   3   1 -0.44669631461272D+02 -0.69849364161956D+01
   1   3   3   1  0.16018599755804D+01 -0.34723361688456D+01
   2   3   3   1 -0.27484047327153D+00 -0.19376960147542D+01
   3   3   3   1 -0.44669532247337D+02 -0.69849814813344D+01
   1   1   1   2 -0.27533598726395D+01  0.79578221598209D+00
   2   1   1   2  0.16906029485210D+01 -0.12094309075335D+00
   3   1   1   2 -0.16018226911542D+01 -0.34723609728269D+01
   1   2   1   2  0.36686750792936D+01 -0.65519655223098D-14
   2   2   1   2 -0.16756533937570D+01  0.20819876712916D-02
   3   2   1   2  0.11567021860907D-01 -0.21319718741883D+00
   1   3   1   2  0.13654493661643D+00  0.49120002539124D-07
   2   3   1   2  0.25052322480963D-01 -0.52606699565197D-01
   3   3   1   2 -0.24588502626486D+00 -0.49108661668345D+00
   1   1   2   2  0.16809294947321D+01 -0.19199713922214D+00
   2   1   2   2 -0.30974917608224D+01 -0.36159084196211D-01
   3   1   2   2  0.27490915239713D+00 -0.19376846949587D+01
   1   2   2   2 -0.16756535981987D+01 -0.20817030192661D-02
   2   2   2   2  0.35343760916194D+01 -0.12912812820982D-14
   3   2   2   2 -0.80166756910433D-02 -0.11495771613014D+00
   1   3   2   2  0.25054350094017D-01  0.52607160204747D-01
   2   3   2   2  0.58137114158770D-01  0.36292724709838D-06
   3   3   2   2  0.14013627558446D+00 -0.24403074807033D+00
   1   1   3   2 -0.16555279514280D+01 -0.30523148132721D+01
   2   1   3   2  0.40763277939895D+00 -0.17439415269174D+01
   3   1   3   2 -0.44669633300792D+02  0.69849336242191D+01
   1   2   3   2  0.11569915940524D-01  0.21319978067417D+00
   2   2   3   2 -0.80149429931413D-02  0.11495843130382D+00
   3   2   3   2  0.61205419489028D+02  0.10195228040997D-13
   1   3   3   2  0.24588923846122D+00 -0.49108346419532D+00
   2   3   3   2 -0.14013495545999D+00 -0.24402926694106D+00
   3   3   3   2 -0.68212338213689D+01  0.14434889615774D-04
   1   1   1   3 -0.27533583060471D+01  0.79578314831963D+00
   2   1   1   3  0.16906076026644D+01 -0.12094691554981D+00
   3   1   1   3  0.16018599755804D+01  0.34723361688456D+01
   1   2   1   3  0.13654493661643D+00 -0.49120002539124D-07
   2   2   1   3  0.25054350094017D-01 -0.52607160204747D-01
   3   2   1   3  0.24588923846122D+00  0.49108346419532D+00
   1   3   1   3  0.36686750792936D+01 -0.65519655223098D-14
   2   3   1   3 -0.16756533937570D+01  0.20819876712916D-02
   3   3   1   3 -0.11567021860906D-01  0.21319718741883D+00
   1   1   2   3  0.16809214385884D+01 -0.19199786296968D+00
   2   1   2   3 -0.30974905805880D+01 -0.36155565215996D-01
   3   1   2   3 -0.27484047327153D+00  0.19376960147542D+01
   1   2   2   3  0.25052322480963D-01  0.52606699565197D-01
   2   2   2   3  0.58137114158770D-01 -0.36292724709838D-06
   3   2   2   3 -0.14013495545999D+00  0.24402926694106D+00
   1   3   2   3 -0.16756535981987D+01 -0.20817030192661D-02
   2   3   2   3  0.35343760916194D+01 -0.12912812820982D-14
   3   3   2   3  0.80166756910464D-02  0.11495771613014D+00
   1   1   3   3  0.16555250664585D+01  0.30523192603016D+01
   2   1   3   3 -0.40764215135019D+00  0.17439274932168D+01
   3   1   3   3 -0.44669532247337D+02  0.69849814813344D+01
   1   2   3   3 -0.24588502626486D+00  0.49108661668345D+00
   2   2   3   3  0.14013627558446D+00  0.24403074807033D+00
   3   2   3   3 -0.68212338213689D+01 -0.14434889615774D-04
   1   3   3   3 -0.11569915940523D-01 -0.21319978067417D+00
   2   3   3   3  0.80149429931444D-02 -0.11495843130382D+00
   3   3   3   3  0.61205419489028D+02  0.10195228040997D-13
  
 2nd derivatives (non-stat.)  - # elements :      81
 qpt  2.50000000E-01  8.33333333E-02  0.00000000E+00   1.0
   1   1   1   1  0.92823818734573D+01 -0.36296611562936D-14
   2   1   1   1 -0.43458616934379D+01 -0.43393906422735D+00
   3   1   1   1  0.44256353299628D-14 -0.67021074327826D-13
   1   2   1   1 -0.20283778237271D+01 -0.99346426487817D+00
   2   2   1   1  0.15588787366787D+01  0.26836523824135D+00
   3   2   1   1 -0.33437803565717D+01  0.35736419211448D+01
   1   3   1   1 -0.20283778237270D+01 -0.99346426487843D+00
   2   3   1   1  0.15588787366784D+01  0.26836523824130D+00
   3   3   1   1  0.33437803565704D+01 -0.35736419211427D+01
   1   1   2   1 -0.43458616882428D+01  0.43393909676583D+00
   2   1   2   1  0.86951137913857D+01 -0.17391805231769D-13
   3   1   2   1  0.73673945317787D-13 -0.42460366352289D-13
   1   2   2   1  0.15787101778855D+01  0.17064142189007D+00
   2   2   2   1 -0.28478794765898D+01 -0.25056122809488D-02
   3   2   2   1  0.36863863999736D+00  0.17056975232707D+01
   1   3   2   1  0.15787101778860D+01  0.17064142189004D+00
   2   3   2   1 -0.28478794765896D+01 -0.25056122811975D-02
   3   3   2   1 -0.36863863999739D+00 -0.17056975232709D+01
   1   1   3   1 -0.90598790650890D-04  0.24165859338005D-04
   2   1   3   1 -0.79192226502169D-04  0.23039644834553D-04
   3   1   3   1  0.11183110251938D+03  0.31962807362614D-13
   1   2   3   1 -0.33123952056406D+01  0.38248995773249D+01
   2   2   3   1  0.27322266706820D+00  0.18001004918650D+01
   3   2   3   1 -0.33802148308295D+02 -0.93765921352932D+01
   1   3   3   1  0.33124109757209D+01 -0.38248646490741D+01
   2   3   3   1 -0.27313965221502D+00 -0.18001080846069D+01
   3   3   3   1 -0.33801993285749D+02 -0.93766803461419D+01
   1   1   1   2 -0.20283759214391D+01  0.99346252060784D+00
   2   1   1   2  0.15787056705068D+01 -0.17063986222502D+00
   3   1   1   2 -0.33123956283929D+01 -0.38248995644939D+01
   1   2   1   2  0.39257696829166D+01 -0.68491468810462D-14
   2   2   1   2 -0.17078524199273D+01  0.78122450934336D-02
   3   2   1   2  0.62043298290060D-01 -0.22817612549011D+00
   1   3   1   2  0.15013685329370D+00 -0.56659471315446D-06
   2   3   1   2  0.59210190306541D-01 -0.70721618412504D-01
   3   3   1   2 -0.41957483065903D+00 -0.52124458875553D+00
   1   1   2   2  0.15588869004159D+01 -0.26836735630968D+00
   2   1   2   2 -0.28478827890959D+01  0.25056838147464D-02
   3   1   2   2  0.27322277105183D+00 -0.18001005565091D+01
   1   2   2   2 -0.17078524792372D+01 -0.78122123079331D-02
   2   2   2   2  0.35975513760748D+01 -0.13847645834759D-14
   3   2   2   2 -0.26683168396046D-01 -0.10288560928137D+00
   1   3   2   2  0.59212046309697D-01  0.70722014120908D-01
   2   3   2   2 -0.18958207794359D-01 -0.13421903306680D-06
   3   3   2   2  0.14260635694614D+00 -0.17742955914093D+00
   1   1   3   2 -0.33437871858046D+01 -0.35736184483670D+01
   2   1   3   2  0.36862125481723D+00 -0.17057147045067D+01
   3   1   3   2 -0.33802149170612D+02  0.93765923097300D+01
   1   2   3   2  0.62043223094141D-01  0.22817706546645D+00
   2   2   3   2 -0.26683088758022D-01  0.10288598722233D+00
   3   2   3   2  0.58442601839942D+02  0.10867577139688D-13
   1   3   3   2  0.41957834746622D+00 -0.52124365198344D+00
   2   3   3   2 -0.14260788648495D+00 -0.17742737220216D+00
   3   3   3   2 -0.66107204547885D+01  0.20171839979583D-04
   1   1   1   3 -0.20283778237270D+01  0.99346426487843D+00
   2   1   1   3  0.15787101778860D+01 -0.17064142189004D+00
   3   1   1   3  0.33124109757209D+01  0.38248646490741D+01
   1   2   1   3  0.15013685329370D+00  0.56659471315446D-06
   2   2   1   3  0.59212046309697D-01 -0.70722014120908D-01
   3   2   1   3  0.41957834746622D+00  0.52124365198344D+00
   1   3   1   3  0.39257696829166D+01 -0.68491468810462D-14
   2   3   1   3 -0.17078524199273D+01  0.78122450934336D-02
   3   3   1   3 -0.62043298290057D-01  0.22817612549011D+00
   1   1   2   3  0.15588787366784D+01 -0.26836523824130D+00
   2   1   2   3 -0.28478794765896D+01  0.25056122811975D-02
   3   1   2   3 -0.27313965221502D+00  0.18001080846069D+01
   1   2   2   3  0.59210190306541D-01  0.70721618412504D-01
   2   2   2   3 -0.18958207794359D-01  0.13421903306680D-06
   3   2   2   3 -0.14260788648495D+00  0.17742737220216D+00
   1   3   2   3 -0.17078524792372D+01 -0.78122123079331D-02
   2   3   2   3  0.35975513760749D+01 -0.13847645834759D-14
   3   3   2   3  0.26683168396053D-01  0.10288560928137D+00
   1   1   3   3  0.33437803565704D+01  0.35736419211427D+01
   2   1   3   3 -0.36863863999739D+00  0.17056975232709D+01
   3   1   3   3 -0.33801993285749D+02  0.93766803461419D+01
   1   2   3   3 -0.41957483065903D+00  0.52124458875553D+00
   2   2   3   3  0.14260635694614D+00  0.17742955914093D+00
   3   2   3   3 -0.66107204547885D+01 -0.20171839979583D-04
   1   3   3   3 -0.62043223094138D-01 -0.22817706546645D+00
   2   3   3   3  0.26683088758029D-01 -0.10288598722233D+00
   3   3   3   3  0.58442601839942D+02  0.10867577139688D-13
  
 2nd derivatives (non-stat.)  - # elements :      81
 qpt  3.33333333E-01  8.33333333E-02  0.00000000E+00   1.0
   1   1   1   1  0.98185796924640D+01 -0.44809984292513D-14
   2   1   1   1 -0.44993408013986D+01 -0.60837550976067D+00
   3   1   1   1 -0.13631432166227D-13 -0.48684248218469D-13
   1   2   1   1 -0.13268973005605D+01 -0.85585663259339D+00
   2   2   1   1  0.14349115416213D+01  0.23311121262034D+00
   3   2   1   1 -0.50556807275157D+01  0.31301757220490D+01
   1   3   1   1 -0.13268973005600D+01 -0.85585663259329D+00
   2   3   1   1  0.14349115416212D+01  0.23311121262039D+00
   3   3   1   1  0.50556807275140D+01 -0.31301757220500D+01
   1   1   2   1 -0.44993407241398D+01  0.60837554959331D+00
   2   1   2   1  0.89246907630268D+01 -0.19050039483962D-13
   3   1   2   1  0.50415778413301D-13  0.48816126027752D-13
   1   2   2   1  0.14505228575815D+01  0.12548503372792D+00
   2   2   2   1 -0.26229936862982D+01  0.16507477777283D+00
   3   2   2   1  0.35382981162374D+00  0.16220847469473D+01
   1   3   2   1  0.14505228575816D+01  0.12548503372789D+00
   2   3   2   1 -0.26229936862968D+01  0.16507477777287D+00
   3   3   2   1 -0.35382981162372D+00 -0.16220847469472D+01
   1   1   3   1 -0.10550065883799D-03  0.29754653922970D-04
   2   1   3   1 -0.64342115691004D-04  0.15256827104484D-04
   3   1   3   1  0.10720448458683D+03  0.29711300568138D-13
   1   2   3   1 -0.49965585540231D+01  0.31664909209570D+01
   2   2   3   1  0.33267630995114D+00  0.17105850439575D+01
   3   2   3   1 -0.23488050875421D+02 -0.69198379017535D+01
   1   3   3   1  0.49965505202473D+01 -0.31664613004382D+01
   2   3   3   1 -0.33258554679143D+00 -0.17105846269084D+01
   3   3   3   1 -0.23487869524635D+02 -0.69199125607128D+01
   1   1   1   2 -0.13268917315173D+01  0.85585495610075D+00
   2   1   1   2  0.14505176224866D+01 -0.12548453943033D+00
   3   1   1   2 -0.49965584594302D+01 -0.31664908278679D+01
   1   2   1   2  0.41961770001935D+01 -0.68182448608114D-14
   2   2   1   2 -0.17597256707020D+01  0.13699512231578D-01
   3   2   1   2  0.10945782963956D+00 -0.16067389312003D+00
   1   3   1   2  0.16858727376905D+00 -0.44905723817127D-06
   2   3   1   2  0.70970317975900D-01 -0.73912315186367D-01
   3   3   1   2 -0.56985942300881D+00 -0.38827401330553D+00
   1   1   2   2  0.14349170247993D+01 -0.23311537321125D+00
   2   1   2   2 -0.26229957416522D+01 -0.16507093126219D+00
   3   1   2   2  0.33267633125883D+00 -0.17105850889820D+01
   1   2   2   2 -0.17597256741647D+01 -0.13699483409591D-01
   2   2   2   2  0.36532982153360D+01 -0.12507852198831D-14
   3   2   2   2 -0.25956231299136D-01 -0.90055881958779D-01
   1   3   2   2  0.70971888590474D-01  0.73912504971773D-01
   2   3   2   2 -0.75123356897963D-01 -0.33035241196648D-06
   3   3   2   2  0.10504501772213D+00 -0.12203140908182D+00
   1   1   3   2 -0.50556842620180D+01 -0.31301419004890D+01
   2   1   3   2  0.35380706999514D+00 -0.16221022964335D+01
   3   1   3   2 -0.23488050799954D+02  0.69198378763186D+01
   1   2   3   2  0.10945782824967D+00  0.16067393316705D+00
   2   2   3   2 -0.25956171532697D-01  0.90055929630564D-01
   3   2   3   2  0.56279875994891D+02  0.92041803636640D-14
   1   3   3   2  0.56986404181365D+00 -0.38827642939244D+00
   2   3   3   2 -0.10504709607900D+00 -0.12202871849636D+00
   3   3   3   2 -0.62151740474777D+01  0.21381371545397D-04
   1   1   1   3 -0.13268973005600D+01  0.85585663259329D+00
   2   1   1   3  0.14505228575816D+01 -0.12548503372789D+00
   3   1   1   3  0.49965505202473D+01  0.31664613004382D+01
   1   2   1   3  0.16858727376905D+00  0.44905723817127D-06
   2   2   1   3  0.70971888590474D-01 -0.73912504971773D-01
   3   2   1   3  0.56986404181365D+00  0.38827642939244D+00
   1   3   1   3  0.41961770001934D+01 -0.68182448608114D-14
   2   3   1   3 -0.17597256707020D+01  0.13699512231578D-01
   3   3   1   3 -0.10945782963957D+00  0.16067389312003D+00
   1   1   2   3  0.14349115416212D+01 -0.23311121262039D+00
   2   1   2   3 -0.26229936862968D+01 -0.16507477777287D+00
   3   1   2   3 -0.33258554679143D+00  0.17105846269084D+01
   1   2   2   3  0.70970317975900D-01  0.73912315186367D-01
   2   2   2   3 -0.75123356897963D-01  0.33035241196648D-06
   3   2   2   3 -0.10504709607900D+00  0.12202871849636D+00
   1   3   2   3 -0.17597256741647D+01 -0.13699483409591D-01
   2   3   2   3  0.36532982153361D+01 -0.12507852198831D-14
   3   3   2   3  0.25956231299134D-01  0.90055881958779D-01
   1   1   3   3  0.50556807275140D+01  0.31301757220500D+01
   2   1   3   3 -0.35382981162372D+00  0.16220847469472D+01
   3   1   3   3 -0.23487869524635D+02  0.69199125607128D+01
   1   2   3   3 -0.56985942300881D+00  0.38827401330553D+00
   2   2   3   3  0.10504501772213D+00  0.12203140908182D+00
   3   2   3   3 -0.62151740474777D+01 -0.21381371545397D-04
   1   3   3   3 -0.10945782824968D+00 -0.16067393316705D+00
   2   3   3   3  0.25956171532695D-01 -0.90055929630564D-01
   3   3   3   3  0.56279875994891D+02  0.92041803636640D-14
  
 2nd derivatives (non-stat.)  - # elements :      81
 qpt  4.16666667E-01  8.33333333E-02  0.00000000E+00   1.0
   1   1   1   1  0.10042911254218D+02 -0.35465400247187D-14
   2   1   1   1 -0.45228159980086D+01 -0.71919132240430D+00
   3   1   1   1 -0.10368156147613D-13 -0.47868344338125D-13
   1   2   1   1 -0.81511006471309D+00 -0.43354354482714D+00
   2   2   1   1  0.13352037390932D+01  0.11198920832423D+00
   3   2   1   1 -0.63367514488917D+01  0.18384993041734D+01
   1   3   1   1 -0.81511006471288D+00 -0.43354354482749D+00
   2   3   1   1  0.13352037390931D+01  0.11198920832419D+00
   3   3   1   1  0.63367514488934D+01 -0.18384993041749D+01
   1   1   2   1 -0.45228160228337D+01  0.71919131602184D+00
   2   1   2   1  0.90027166060122D+01 -0.22235704304612D-13
   3   1   2   1  0.50529067645780D-13 -0.49449820516859D-14
   1   2   2   1  0.13259447556117D+01  0.86338835318340D-02
   2   2   2   1 -0.24593202436948D+01  0.46745721723585D+00
   3   2   2   1  0.38216570959758D+00  0.15468192688276D+01
   1   3   2   1  0.13259447556117D+01  0.86338835319166D-02
   2   3   2   1 -0.24593202436956D+01  0.46745721723570D+00
   3   3   2   1 -0.38216570959765D+00 -0.15468192688275D+01
   1   1   3   1 -0.11635154007037D-03  0.21329460965931D-04
   2   1   3   1 -0.47111155701009D-04  0.22352615056698D-04
   3   1   3   1  0.10426726668708D+03  0.35066649851991D-13
   1   2   3   1 -0.62483892671965D+01  0.17635738278646D+01
   2   2   3   1  0.40743007994462D+00  0.16695207882531D+01
   3   2   3   1 -0.16285647779321D+02 -0.42116596349875D+00
   1   3   3   1  0.62483663525185D+01 -0.17635570360885D+01
   2   3   3   1 -0.40734333764192D+00 -0.16695168008868D+01
   3   3   3   1 -0.16285498557078D+02 -0.42119233675985D+00
   1   1   1   2 -0.81510236481161D+00  0.43354220708899D+00
   2   1   1   2  0.13259384524948D+01 -0.86327368555796D-02
   3   1   1   2 -0.62483894310878D+01 -0.17635738794567D+01
   1   2   1   2  0.43935644754410D+01 -0.38364376571936D-14
   2   2   1   2 -0.18191769735629D+01  0.17344515937469D-01
   3   2   1   2  0.13627390248108D+00 -0.34304932626917D-01
   1   3   1   2  0.18725525878501D+00 -0.91079977701593D-07
   2   3   1   2  0.63412629084833D-01 -0.71100202613542D-01
   3   3   1   2 -0.63978347283132D+00 -0.12074130024248D+00
   1   1   2   2  0.13352065366245D+01 -0.11199265182836D+00
   2   1   2   2 -0.24593192163892D+01 -0.46745391243933D+00
   3   1   2   2  0.40743008010262D+00 -0.16695207281345D+01
   1   2   2   2 -0.18191769837431D+01 -0.17344508316705D-01
   2   2   2   2  0.36875167788901D+01 -0.58550374111609D-15
   3   2   2   2 -0.99178422300676D-02 -0.79820828780909D-01
   1   3   2   2  0.63414199035103D-01  0.71099458860443D-01
   2   3   2   2 -0.10382080677821D+00  0.38389722381026D-06
   3   3   2   2  0.38727919549588D-01 -0.89903806955212D-01
   1   1   3   2 -0.63367476976999D+01 -0.18384801599199D+01
   2   1   3   2  0.38214406035590D+00 -0.15468336258006D+01
   3   1   3   2 -0.16285647719848D+02  0.42116594345699D+00
   1   2   3   2  0.13627393223227D+00  0.34304935685242D-01
   2   2   3   2 -0.99178258980545D-02  0.79820857258067D-01
   3   2   3   2  0.55090400264331D+02  0.59403590681413D-14
   1   3   3   2  0.63978780336993D+00 -0.12074548742584D+00
   2   3   3   2 -0.38730476363782D-01 -0.89900648757701D-01
   3   3   3   2 -0.58769498724029D+01  0.16384194729524D-04
   1   1   1   3 -0.81511006471288D+00  0.43354354482749D+00
   2   1   1   3  0.13259447556117D+01 -0.86338835319166D-02
   3   1   1   3  0.62483663525185D+01  0.17635570360885D+01
   1   2   1   3  0.18725525878501D+00  0.91079977701593D-07
   2   2   1   3  0.63414199035103D-01 -0.71099458860443D-01
   3   2   1   3  0.63978780336993D+00  0.12074548742584D+00
   1   3   1   3  0.43935644754410D+01 -0.38364376571936D-14
   2   3   1   3 -0.18191769735629D+01  0.17344515937469D-01
   3   3   1   3 -0.13627390248108D+00  0.34304932626917D-01
   1   1   2   3  0.13352037390931D+01 -0.11198920832419D+00
   2   1   2   3 -0.24593202436956D+01 -0.46745721723570D+00
   3   1   2   3 -0.40734333764192D+00  0.16695168008868D+01
   1   2   2   3  0.63412629084833D-01  0.71100202613542D-01
   2   2   2   3 -0.10382080677821D+00 -0.38389722381026D-06
   3   2   2   3 -0.38730476363782D-01  0.89900648757701D-01
   1   3   2   3 -0.18191769837431D+01 -0.17344508316705D-01
   2   3   2   3  0.36875167788901D+01 -0.58550374111609D-15
   3   3   2   3  0.99178422300674D-02  0.79820828780909D-01
   1   1   3   3  0.63367514488934D+01  0.18384993041749D+01
   2   1   3   3 -0.38216570959765D+00  0.15468192688275D+01
   3   1   3   3 -0.16285498557078D+02  0.42119233675985D+00
   1   2   3   3 -0.63978347283132D+00  0.12074130024248D+00
   2   2   3   3  0.38727919549588D-01  0.89903806955212D-01
   3   2   3   3 -0.58769498724029D+01 -0.16384194729524D-04
   1   3   3   3 -0.13627393223228D+00 -0.34304935685242D-01
   2   3   3   3  0.99178258980542D-02 -0.79820857258067D-01
   3   3   3   3  0.55090400264331D+02  0.59403590681413D-14
  
 2nd derivatives (non-stat.)  - # elements :      81
 qpt  1.66666667E-01  1.66666667E-01  0.00000000E+00   1.0
   1   1   1   1  0.89454183766620D+01 -0.50329604084298D-14
   2   1   1   1 -0.43626183304546D+01 -0.58996614944157D+00
   3   1   1   1  0.10673273435536D-15  0.42707770888932D-13
   1   2   1   1 -0.25701584743379D+01 -0.60415067715385D+00
   2   2   1   1  0.16446469078286D+01  0.69650123049205D-01
   3   2   1   1 -0.15876882263896D+01  0.30392162054238D+01
   1   3   1   1 -0.25701584743382D+01 -0.60415067715432D+00
   2   3   1   1  0.16446469078281D+01  0.69650123049210D-01
   3   3   1   1  0.15876882263883D+01 -0.30392162054252D+01
   1   1   2   1 -0.43626183304548D+01  0.58996614944160D+00
   2   1   2   1  0.89454183765465D+01 -0.32494033588544D-13
   3   1   2   1 -0.95408377235425D-04 -0.21957775744274D-04
   1   2   2   1  0.16446397284235D+01 -0.69651816315252D-01
   2   2   2   1 -0.25701584743087D+01  0.60415067709944D+00
   3   2   2   1  0.15876638530887D+01  0.30392442687732D+01
   1   3   2   1  0.16446469078286D+01 -0.69650123009404D-01
   2   3   2   1 -0.25701584743084D+01  0.60415067709898D+00
   3   3   2   1 -0.15876882262869D+01 -0.30392162054078D+01
   1   1   3   1 -0.80406805943824D-04  0.11831556640588D-04
   2   1   3   1 -0.95408377235425D-04  0.21957775744274D-04
   3   1   3   1  0.11260837908489D+03  0.63651299846990D-13
   1   2   3   1 -0.14744709494221D+01  0.32560489433740D+01
   2   2   3   1  0.14745221800535D+01  0.32560146289441D+01
   3   2   3   1 -0.36551865163049D+02  0.52040156053277D-04
   1   3   3   1  0.14745166717191D+01 -0.32560081342457D+01
   2   3   3   1 -0.14744589028813D+01 -0.32560445452312D+01
   3   3   3   1 -0.36551761008111D+02 -0.10337239733457D-03
   1   1   1   2 -0.25701572966803D+01  0.60414805721831D+00
   2   1   1   2  0.16446397284235D+01  0.69651816315252D-01
   3   1   1   2 -0.14744709234890D+01 -0.32560490304553D+01
   1   2   1   2  0.37309631160124D+01 -0.62326751360206D-14
   2   2   1   2 -0.16819421588215D+01  0.10124217173151D-01
   3   2   1   2  0.46000835026591D-01 -0.18020639354210D+00
   1   3   1   2  0.59448116035563D-01 -0.76461635687542D-06
   2   3   1   2  0.70279308556689D-01 -0.10091298043201D+00
   3   3   1   2 -0.29181503218852D+00 -0.37165943786325D+00
   1   1   2   2  0.16446469078286D+01 -0.69650123049205D-01
   2   1   2   2 -0.25701584743087D+01 -0.60415067709944D+00
   3   1   2   2  0.14745221800535D+01 -0.32560146289441D+01
   1   2   2   2 -0.16819421588215D+01 -0.10124217173144D-01
   2   2   2   2  0.37309631159805D+01 -0.18465889060124D-14
   3   2   2   2 -0.46000014602524D-01 -0.18020440422023D+00
   1   3   2   2  0.70279308556690D-01  0.10091298043201D+00
   2   3   2   2  0.59448116033237D-01 -0.76461636000166D-06
   3   3   2   2  0.29181398408351D+00 -0.37165851526201D+00
   1   1   3   2 -0.15876968301361D+01 -0.30392012280621D+01
   2   1   3   2  0.15876638530887D+01 -0.30392442687732D+01
   3   1   3   2 -0.36551865389081D+02 -0.52003293374481D-04
   1   2   3   2  0.46000764137324D-01  0.18020662518845D+00
   2   2   3   2 -0.46000014602524D-01  0.18020440422023D+00
   3   2   3   2  0.58709810438362D+02  0.10691854352087D-13
   1   3   3   2  0.29181398408351D+00 -0.37165851525570D+00
   2   3   3   2 -0.29181384259571D+00 -0.37165789041373D+00
   3   3   3   2 -0.65871942472702D+01  0.16954649432577D-04
   1   1   1   3 -0.25701584743382D+01  0.60415067715432D+00
   2   1   1   3  0.16446469078286D+01  0.69650123009404D-01
   3   1   1   3  0.14745166717191D+01  0.32560081342457D+01
   1   2   1   3  0.59448116035563D-01  0.76461635687542D-06
   2   2   1   3  0.70279308556689D-01 -0.10091298043201D+00
   3   2   1   3  0.29181398408351D+00  0.37165851525570D+00
   1   3   1   3  0.37309631160124D+01 -0.62326751360206D-14
   2   3   1   3 -0.16819421588216D+01  0.10124217173151D-01
   3   3   1   3 -0.46000014723063D-01  0.18020440422023D+00
   1   1   2   3  0.16446469078281D+01 -0.69650123049210D-01
   2   1   2   3 -0.25701572966509D+01 -0.60414805716344D+00
   3   1   2   3 -0.14744589028813D+01  0.32560445452312D+01
   1   2   2   3  0.70279308556689D-01  0.10091298043201D+00
   2   2   2   3  0.59448116033237D-01  0.76461636000166D-06
   3   2   2   3 -0.29181384259571D+00  0.37165789041373D+00
   1   3   2   3 -0.16819421588215D+01 -0.10124217173144D-01
   2   3   2   3  0.37309631159806D+01 -0.18465889060124D-14
   3   3   2   3  0.46000834906041D-01  0.18020639354210D+00
   1   1   3   3  0.15876882263883D+01  0.30392162054252D+01
   2   1   3   3 -0.15876968300334D+01  0.30392012280461D+01
   3   1   3   3 -0.36551761008111D+02  0.10337239733457D-03
   1   2   3   3 -0.29181503218852D+00  0.37165943786325D+00
   2   2   3   3  0.29181398408351D+00  0.37165851526201D+00
   3   2   3   3 -0.65871942472702D+01 -0.16954649432577D-04
   1   3   3   3 -0.46000014723063D-01 -0.18020440422023D+00
   2   3   3   3  0.46000764016774D-01 -0.18020662518845D+00
   3   3   3   3  0.58709810438363D+02  0.10691854352087D-13
  
 2nd derivatives (non-stat.)  - # elements :      81
 qpt  2.50000000E-01  1.66666667E-01  0.00000000E+00   1.0
   1   1   1   1  0.95567784220207D+01 -0.70021360395416D-14
   2   1   1   1 -0.46006682502327D+01 -0.94696959668876D+00
   3   1   1   1 -0.81281283852160D-14  0.31992803475831D-13
   1   2   1   1 -0.18472718654700D+01 -0.86155669300434D+00
   2   2   1   1  0.15296864676692D+01  0.16145668660043D+00
   3   2   1   1 -0.32410984479928D+01  0.35357212215699D+01
   1   3   1   1 -0.18472718654699D+01 -0.86155669300440D+00
   2   3   1   1  0.15296864676692D+01  0.16145668660046D+00
   3   3   1   1  0.32410984479923D+01 -0.35357212215704D+01
   1   1   2   1 -0.46006682895331D+01  0.94696951876887D+00
   2   1   2   1  0.92182023347323D+01 -0.34413374476952D-13
   3   1   2   1  0.18761689047098D-14  0.30120087450565D-13
   1   2   2   1  0.15369821731242D+01 -0.11112261754862D-01
   2   2   2   1 -0.23229771073451D+01  0.61406701676497D+00
   3   2   2   1  0.15128842172662D+01  0.29456131196100D+01
   1   3   2   1  0.15369821731242D+01 -0.11112261754859D-01
   2   3   2   1 -0.23229771073452D+01  0.61406701676558D+00
   3   3   2   1 -0.15128842172655D+01 -0.29456131196127D+01
   1   1   3   1 -0.91273382716584D-04  0.19146893082901D-04
   2   1   3   1 -0.83865149997457D-04  0.17677433426498D-04
   3   1   3   1  0.10844581759814D+03  0.56550620805478D-13
   1   2   3   1 -0.32084321493670D+01  0.36230533401091D+01
   2   2   3   1  0.14829978893371D+01  0.30661532678203D+01
   3   2   3   1 -0.26368932741319D+02 -0.25891121335692D+01
   1   3   3   1  0.32084570004221D+01 -0.36230017227856D+01
   2   3   3   1 -0.14829223642458D+01 -0.30661809530481D+01
   3   3   3   1 -0.26368785819261D+02 -0.25892805888029D+01
   1   1   1   2 -0.18472677287634D+01  0.86155562647758D+00
   2   1   1   2  0.15369751120378D+01  0.11113762599229D-01
   3   1   1   2 -0.32084320739110D+01 -0.36230532290861D+01
   1   2   1   2  0.39957371009361D+01 -0.74062910873951D-14
   2   2   1   2 -0.17381574832905D+01  0.21165566699358D-01
   3   2   1   2  0.86910527912301D-01 -0.16726653279808D+00
   1   3   1   2  0.81650714279990D-01 -0.65337527680393D-06
   2   3   1   2  0.83943238211630D-01 -0.12476691579153D+00
   3   3   1   2 -0.42226977599266D+00 -0.35618082171985D+00
   1   1   2   2  0.15296945489600D+01 -0.16145932829718D+00
   2   1   2   2 -0.23229807943986D+01 -0.61406461508599D+00
   3   1   2   2  0.14829978848393D+01 -0.30661532084393D+01
   1   2   2   2 -0.17381574688137D+01 -0.21165580376578D-01
   2   2   2   2  0.37986264558136D+01 -0.13546426102569D-14
   3   2   2   2 -0.57630761468965D-01 -0.15009844324280D+00
   1   3   2   2  0.83944791805619D-01  0.12476698563051D+00
   2   3   2   2 -0.88285955868632D-02 -0.22935643898449D-06
   3   3   2   2  0.25388203817605D+00 -0.25328945346980D+00
   1   1   3   2 -0.32411106280034D+01 -0.35356896700941D+01
   2   1   3   2  0.15128588623486D+01 -0.29456416787897D+01
   3   1   3   2 -0.26368932762462D+02  0.25891121347543D+01
   1   2   3   2  0.86910532828878D-01  0.16726662481535D+00
   2   2   3   2 -0.57630778547498D-01  0.15009844118554D+00
   3   2   3   2  0.56356345571324D+02  0.11385165139495D-13
   1   3   3   2  0.42226985833511D+00 -0.35618151051405D+00
   2   3   3   2 -0.25388107147897D+00 -0.25328722367359D+00
   3   3   3   2 -0.60955851713589D+01  0.21414898653796D-04
   1   1   1   3 -0.18472718654699D+01  0.86155669300440D+00
   2   1   1   3  0.15369821731242D+01  0.11112261754859D-01
   3   1   1   3  0.32084570004221D+01  0.36230017227856D+01
   1   2   1   3  0.81650714279990D-01  0.65337527680393D-06
   2   2   1   3  0.83944791805619D-01 -0.12476698563051D+00
   3   2   1   3  0.42226985833511D+00  0.35618151051405D+00
   1   3   1   3  0.39957371009360D+01 -0.74062910873951D-14
   2   3   1   3 -0.17381574832905D+01  0.21165566699358D-01
   3   3   1   3 -0.86910527912305D-01  0.16726653279808D+00
   1   1   2   3  0.15296864676692D+01 -0.16145668660046D+00
   2   1   2   3 -0.23229771073452D+01 -0.61406701676558D+00
   3   1   2   3 -0.14829223642458D+01  0.30661809530481D+01
   1   2   2   3  0.83943238211630D-01  0.12476691579153D+00
   2   2   2   3 -0.88285955868632D-02  0.22935643898449D-06
   3   2   2   3 -0.25388107147897D+00  0.25328722367359D+00
   1   3   2   3 -0.17381574688137D+01 -0.21165580376578D-01
   2   3   2   3  0.37986264558137D+01 -0.13546426102569D-14
   3   3   2   3  0.57630761468967D-01  0.15009844324280D+00
   1   1   3   3  0.32410984479923D+01  0.35357212215704D+01
   2   1   3   3 -0.15128842172655D+01  0.29456131196127D+01
   3   1   3   3 -0.26368785819261D+02  0.25892805888029D+01
   1   2   3   3 -0.42226977599266D+00  0.35618082171985D+00
   2   2   3   3  0.25388203817605D+00  0.25328945346980D+00
   3   2   3   3 -0.60955851713589D+01 -0.21414898653796D-04
   1   3   3   3 -0.86910532828882D-01 -0.16726662481535D+00
   2   3   3   3  0.57630778547500D-01 -0.15009844118554D+00
   3   3   3   3  0.56356345571324D+02  0.11385165139495D-13
  
 2nd derivatives (non-stat.)  - # elements :      81
 qpt  3.33333333E-01  1.66666667E-01  0.00000000E+00   1.0
   1   1   1   1  0.99071114539811D+01 -0.39714258641000D-14
   2   1   1   1 -0.46880926313379D+01 -0.12313865871221D+01
   3   1   1   1 -0.12397626107147D-14 -0.49530274347813D-13
   1   2   1   1 -0.11309823386675D+01 -0.76444162984011D+00
   2   2   1   1  0.13970486061836D+01  0.14243224668930D+00
   3   2   1   1 -0.49539412158267D+01  0.30983561935486D+01
   1   3   1   1 -0.11309823386675D+01 -0.76444162983849D+00
   2   3   1   1  0.13970486061845D+01  0.14243224668914D+00
   3   3   1   1  0.49539412158258D+01 -0.30983561935477D+01
   1   1   2   1 -0.46880926395170D+01  0.12313866130069D+01
   2   1   2   1  0.93174750762596D+01 -0.35873952675760D-13
   3   1   2   1 -0.20927114177166D-13 -0.24481764905528D-14
   1   2   2   1  0.13813768915586D+01 -0.18343771905871D-01
   2   2   2   1 -0.20774995391188D+01  0.79587931312068D+00
   3   2   2   1  0.14926610707986D+01  0.28026868008151D+01
   1   3   2   1  0.13813768915588D+01 -0.18343771905863D-01
   2   3   2   1 -0.20774995391192D+01  0.79587931312060D+00
   3   3   2   1 -0.14926610707985D+01 -0.28026868008130D+01
   1   1   3   1 -0.10428805141184D-03  0.15611967046868D-04
   2   1   3   1 -0.73077329998764D-04  0.22947873556567D-04
   3   1   3   1  0.10511270217740D+03  0.60021197129031D-13
   1   2   3   1 -0.49652404132482D+01  0.30420119064066D+01
   2   2   3   1  0.15667840442089D+01  0.29519157047285D+01
   3   2   3   1 -0.16811244600167D+02 -0.41212324298995D+00
   1   3   3   1  0.49652399732888D+01 -0.30419677164078D+01
   2   3   3   1 -0.15667058695262D+01 -0.29519350243664D+01
   3   3   3   1 -0.16811105934925D+02 -0.41222863372759D+00
   1   1   1   2 -0.11309757188099D+01  0.76444194590090D+00
   2   1   1   2  0.13813689352377D+01  0.18344584053242D-01
   3   1   1   2 -0.49652405416278D+01 -0.30420119849070D+01
   1   2   1   2  0.42579535920902D+01 -0.67872295410515D-14
   2   2   1   2 -0.18315882291590D+01  0.30188873685202D-01
   3   2   1   2  0.11081132244324D+00 -0.78117894387717D-01
   1   3   1   2  0.11376941104762D+00 -0.36649049694127D-06
   2   3   1   2  0.69447520218241D-01 -0.12875103139417D+00
   3   3   1   2 -0.49036912688541D+00 -0.19757024029249D+00
   1   1   2   2  0.13970544670045D+01 -0.14243664343550D+00
   2   1   2   2 -0.20775013714349D+01 -0.79587429763341D+00
   3   1   2   2  0.15667840697841D+01 -0.29519157392097D+01
   1   2   2   2 -0.18315882691340D+01 -0.30188852698239D-01
   2   2   2   2  0.38516448948446D+01 -0.10910499231641D-14
   3   2   2   2 -0.36561710543274D-01 -0.12560166566318D+00
   1   3   2   2  0.69448866207051D-01  0.12875029999184D+00
   2   3   2   2 -0.54109694570255D-01  0.19806267010951D-06
   3   3   2   2  0.14677178125651D+00 -0.16639211161985D+00
   1   1   3   2 -0.49539477740373D+01 -0.30983244597294D+01
   2   1   3   2  0.14926362359810D+01 -0.28027134472583D+01
   3   1   3   2 -0.16811244530190D+02  0.41212325981487D+00
   1   2   3   2  0.11081135218157D+00  0.78117956382497D-01
   2   2   3   2 -0.36561654949944D-01  0.12560171822063D+00
   3   2   3   2  0.54638808815987D+02  0.10023576132340D-13
   1   3   3   2  0.49036983486517D+00 -0.19757386470065D+00
   2   3   3   2 -0.14677144934436D+00 -0.16638884361283D+00
   3   3   3   2 -0.55565261955039D+01  0.21540362172169D-04
   1   1   1   3 -0.11309823386675D+01  0.76444162983849D+00
   2   1   1   3  0.13813768915588D+01  0.18343771905863D-01
   3   1   1   3  0.49652399732888D+01  0.30419677164078D+01
   1   2   1   3  0.11376941104762D+00  0.36649049694127D-06
   2   2   1   3  0.69448866207051D-01 -0.12875029999184D+00
   3   2   1   3  0.49036983486517D+00  0.19757386470065D+00
   1   3   1   3  0.42579535920902D+01 -0.67872295410515D-14
   2   3   1   3 -0.18315882291590D+01  0.30188873685202D-01
   3   3   1   3 -0.11081132244323D+00  0.78117894387717D-01
   1   1   2   3  0.13970486061845D+01 -0.14243224668914D+00
   2   1   2   3 -0.20774995391192D+01 -0.79587931312060D+00
   3   1   2   3 -0.15667058695262D+01  0.29519350243664D+01
   1   2   2   3  0.69447520218241D-01  0.12875103139417D+00
   2   2   2   3 -0.54109694570255D-01 -0.19806267010951D-06
   3   2   2   3 -0.14677144934436D+00  0.16638884361283D+00
   1   3   2   3 -0.18315882691340D+01 -0.30188852698239D-01
   2   3   2   3  0.38516448948446D+01 -0.10910499231641D-14
   3   3   2   3  0.36561710543274D-01  0.12560166566318D+00
   1   1   3   3  0.49539412158258D+01  0.30983561935477D+01
   2   1   3   3 -0.14926610707985D+01  0.28026868008130D+01
   3   1   3   3 -0.16811105934925D+02  0.41222863372759D+00
   1   2   3   3 -0.49036912688541D+00  0.19757024029249D+00
   2   2   3   3  0.14677178125651D+00  0.16639211161985D+00
   3   2   3   3 -0.55565261955039D+01 -0.21540362172169D-04
   1   3   3   3 -0.11081135218157D+00 -0.78117956382497D-01
   2   3   3   3  0.36561654949944D-01 -0.12560171822063D+00
   3   3   3   3  0.54638808815986D+02  0.10023576132340D-13
  
 2nd derivatives (non-stat.)  - # elements :      81
 qpt  4.16666667E-01  1.66666667E-01  0.00000000E+00   1.0
   1   1   1   1  0.99773377224205D+01 -0.44142928367988D-14
   2   1   1   1 -0.46671494952650D+01 -0.13414851423097D+01
   3   1   1   1 -0.44895759091529D-14 -0.56141108577026D-13
   1   2   1   1 -0.59038049712364D+00 -0.34650259492702D+00
   2   2   1   1  0.12687131861011D+01  0.38017655648137D-01
   3   2   1   1 -0.62771473095648D+01  0.18255124104333D+01
   1   3   1   1 -0.59038049712357D+00 -0.34650259492680D+00
   2   3   1   1  0.12687131861006D+01  0.38017655648144D-01
   3   3   1   1  0.62771473095655D+01 -0.18255124104329D+01
   1   1   2   1 -0.46671495937107D+01  0.13414851225752D+01
   2   1   2   1  0.93342994984960D+01 -0.39332424106821D-13
   3   1   2   1 -0.52883300513411D-15 -0.17287457367400D-13
   1   2   2   1  0.11967024537685D+01 -0.86708103718369D-01
   2   2   2   1 -0.18701458537875D+01  0.10797286348595D+01
   3   2   2   1  0.15576254576612D+01  0.26978912003018D+01
   1   3   2   1  0.11967024537687D+01 -0.86708103718365D-01
   2   3   2   1 -0.18701458537868D+01  0.10797286348598D+01
   3   3   2   1 -0.15576254576621D+01 -0.26978912002999D+01
   1   1   3   1 -0.11607206461629D-03  0.92800642779514D-05
   2   1   3   1 -0.57686083497857D-04  0.27713639699397D-04
   3   1   3   1  0.10387327488196D+03  0.60347224515179D-13
   1   2   3   1 -0.62933662408516D+01  0.17102403328342D+01
   2   2   3   1  0.16656126471546D+01  0.28848611880879D+01
   3   2   3   1 -0.10186658566545D+02  0.58812614119875D+01
   1   3   3   1  0.62933533180750D+01 -0.17102096917773D+01
   2   3   3   1 -0.16655401506981D+01 -0.28848729037964D+01
   3   3   3   1 -0.10186551672524D+02  0.58812042064642D+01
   1   1   1   2 -0.59037354392988D+00  0.34650329986162D+00
   2   1   1   2  0.11966937837393D+01  0.86709603363147D-01
   3   1   1   2 -0.62933663387239D+01 -0.17102403602200D+01
   1   2   1   2  0.44276978160522D+01 -0.40583432932015D-14
   2   2   1   2 -0.19360056724778D+01  0.33667752270077D-01
   3   2   1   2  0.10830495304069D+00  0.57665806713200D-01
   1   3   1   2  0.15264528943674D+00 -0.13329544658640D-06
   2   3   1   2  0.34926387067015D-01 -0.12767142267662D+00
   3   3   1   2 -0.46358218979109D+00  0.67025000637206D-01
   1   1   2   2  0.12687170184440D+01 -0.38021091790650D-01
   2   1   2   2 -0.18701453853197D+01 -0.10797249877544D+01
   3   1   2   2  0.16656126742461D+01 -0.28848612351821D+01
   1   2   2   2 -0.19360056800219D+01 -0.33667746294358D-01
   2   2   2   2  0.38720173720414D+01 -0.72671272870805D-15
   3   2   2   2  0.53548056716013D-05 -0.11530822380609D+00
   1   3   2   2  0.34927807835767D-01  0.12766957088780D+00
   2   3   2   2 -0.69854225997366D-01  0.11647334065853D-05
   3   3   2   2 -0.49853668419755D-06 -0.13404652096667D+00
   1   1   3   2 -0.62771458880905D+01 -0.18254998685474D+01
   2   1   3   2  0.15576066996926D+01 -0.26979138904783D+01
   3   1   3   2 -0.10186658566748D+02 -0.58812614133351D+01
   1   2   3   2  0.10830497304448D+00 -0.57665789981827D-01
   2   2   3   2  0.53564404971085D-05  0.11530822311278D+00
   3   2   3   2  0.53994435383376D+02  0.58366116986587D-14
   1   3   3   2  0.46358252864042D+00  0.67018930628034D-01
   2   3   3   2 -0.74284333717258D-08 -0.13404271435107D+00
   3   3   3   2 -0.53162784562139D+01  0.14667813239277D-04
   1   1   1   3 -0.59038049712357D+00  0.34650259492680D+00
   2   1   1   3  0.11967024537687D+01  0.86708103718365D-01
   3   1   1   3  0.62933533180750D+01  0.17102096917773D+01
   1   2   1   3  0.15264528943674D+00  0.13329544658640D-06
   2   2   1   3  0.34927807835767D-01 -0.12766957088780D+00
   3   2   1   3  0.46358252864042D+00 -0.67018930628034D-01
   1   3   1   3  0.44277039216596D+01 -0.59757184677552D-08
   2   3   1   3 -0.19360117856293D+01  0.33667752270077D-01
   3   3   1   3 -0.10831030772590D+00 -0.57642417092887D-01
   1   1   2   3  0.12687131861006D+01 -0.38017655648144D-01
   2   1   2   3 -0.18701458537868D+01 -0.10797286348598D+01
   3   1   2   3 -0.16655401506981D+01  0.28848729037964D+01
   1   2   2   3  0.34926387067015D-01  0.12767142267662D+00
   2   2   2   3 -0.69854225997366D-01 -0.11647334065853D-05
   3   2   2   3 -0.74284333717258D-08  0.13404271435107D+00
   1   3   2   3 -0.19360117780851D+01 -0.33667746294358D-01
   2   3   2   3  0.38720173720414D+01 -0.72671272870805D-15
   3   3   2   3  0.53545647539234D-05  0.11530822380609D+00
   1   1   3   3  0.62771473095655D+01  0.18255124104329D+01
   2   1   3   3 -0.15576254576621D+01  0.26978912002999D+01
   3   1   3   3 -0.10186551672524D+02 -0.58812042064642D+01
   1   2   3   3 -0.46358218979109D+00 -0.67025000637206D-01
   2   2   3   3 -0.49853668419755D-06  0.13404652096667D+00
   3   2   3   3 -0.53162784562139D+01 -0.14667813239277D-04
   1   3   3   3 -0.10831032936453D+00  0.57642433130952D-01
   2   3   3   3  0.53561995794306D-05 -0.11530822311278D+00
   3   3   3   3  0.53994435383376D+02  0.58366116986587D-14
  
 2nd derivatives (non-stat.)  - # elements :      81
 qpt  2.50000000E-01  2.50000000E-01  0.00000000E+00   1.0
   1   1   1   1  0.96538150608944D+01 -0.67504247678874D-14
   2   1   1   1 -0.47650782404146D+01 -0.14163498568661D+01
   3   1   1   1  0.14105290156007D-13 -0.17956951080291D-13
   1   2   1   1 -0.15889177435196D+01 -0.90023524748969D+00
   2   2   1   1  0.14198056461024D+01  0.87831787536155D-01
   3   2   1   1 -0.31539217612096D+01  0.34176617337994D+01
   1   3   1   1 -0.15889177435196D+01 -0.90023524748911D+00
   2   3   1   1  0.14198056461018D+01  0.87831787536155D-01
   3   3   1   1  0.31539217612098D+01 -0.34176617338034D+01
   1   1   2   1 -0.47650782404148D+01  0.14163498568662D+01
   2   1   2   1  0.96538150607539D+01 -0.42133271448614D-13
   3   1   2   1 -0.93911747193502D-04 -0.19628017719899D-04
   1   2   2   1  0.14197974240066D+01 -0.87830146568907D-01
   2   2   2   1 -0.15889177434831D+01  0.90023524741519D+00
   3   2   2   1  0.31538919767346D+01  0.34177010555927D+01
   1   3   2   1  0.14198056461024D+01 -0.87831787477664D-01
   2   3   2   1 -0.15889177434830D+01  0.90023524741576D+00
   3   3   2   1 -0.31539217611341D+01 -0.34176617337619D+01
   1   1   3   1 -0.90391714828670D-04  0.94977238665186D-05
   2   1   3   1 -0.93911747193502D-04  0.19628017719899D-04
   3   1   3   1  0.10555088339815D+03  0.69274170446417D-13
   1   2   3   1 -0.32364124600543D+01  0.34755463546437D+01
   2   2   3   1  0.32364528736260D+01  0.34755022932590D+01
   3   2   3   1 -0.17064316822490D+02  0.65374188019264D-04
   1   3   3   1  0.32364496021564D+01 -0.34754894005346D+01
   2   3   3   1 -0.32364003661193D+01 -0.34755418292794D+01
   3   3   3   1 -0.17064216338513D+02 -0.85216653208488D-04
   1   1   1   2 -0.15889129135044D+01  0.90023667391700D+00
   2   1   1   2  0.14197974240066D+01  0.87830146568907D-01
   3   1   1   2 -0.32364124822983D+01 -0.34755463637495D+01
   1   2   1   2  0.40618358400428D+01 -0.76099310066763D-14
   2   2   1   2 -0.18373062939294D+01  0.35053742955656D-01
   3   2   1   2  0.73319744335157D-01 -0.11932110234326D+00
   1   3   1   2  0.23735194302661D-01 -0.60332687164106D-06
   2   3   1   2  0.72353361505814D-01 -0.15197507883301D+00
   3   3   1   2 -0.30732954202859D+00 -0.20987666597524D+00
   1   1   2   2  0.14198056461024D+01 -0.87831787536155D-01
   2   1   2   2 -0.15889177434831D+01 -0.90023524741519D+00
   3   1   2   2  0.32364528736260D+01 -0.34755022932590D+01
   1   2   2   2 -0.18373062939294D+01 -0.35053742955649D-01
   2   2   2   2  0.40618358400064D+01 -0.12411540764445D-14
   3   2   2   2 -0.73318482359534D-01 -0.11932167476588D+00
   1   3   2   2  0.72353361505814D-01  0.15197507883301D+00
   2   3   2   2  0.23735194298957D-01 -0.60332687381257D-06
   3   3   2   2  0.30732741844612D+00 -0.20987805322258D+00
   1   1   3   2 -0.31539358666909D+01 -0.34176323553828D+01
   2   1   3   2  0.31538919767346D+01 -0.34177010555927D+01
   3   1   3   2 -0.17064316882103D+02 -0.65396226913309D-04
   1   2   3   2  0.73319730601056D-01  0.11932110265065D+00
   2   2   3   2 -0.73318482359534D-01  0.11932167476588D+00
   3   2   3   2  0.54404261611900D+02  0.11722857897896D-13
   1   3   3   2  0.30732741844612D+00 -0.20987805320931D+00
   2   3   3   2 -0.30732787147189D+00 -0.20987549908060D+00
   3   3   3   2 -0.53934406165608D+01  0.19133744309180D-04
   1   1   1   3 -0.15889177435196D+01  0.90023524748911D+00
   2   1   1   3  0.14198056461024D+01  0.87831787477664D-01
   3   1   1   3  0.32364496021564D+01  0.34754894005346D+01
   1   2   1   3  0.23735194302661D-01  0.60332687164106D-06
   2   2   1   3  0.72353361505814D-01 -0.15197507883301D+00
   3   2   1   3  0.30732741844612D+00  0.20987805320931D+00
   1   3   1   3  0.40618358400428D+01 -0.76099310066763D-14
   2   3   1   3 -0.18373062939294D+01  0.35053742955656D-01
   3   3   1   3 -0.73318482480076D-01  0.11932167476588D+00
   1   1   2   3  0.14198056461018D+01 -0.87831787536155D-01
   2   1   2   3 -0.15889129134678D+01 -0.90023667384307D+00
   3   1   2   3 -0.32364003661193D+01  0.34755418292794D+01
   1   2   2   3  0.72353361505814D-01  0.15197507883301D+00
   2   2   2   3  0.23735194298957D-01  0.60332687381257D-06
   3   2   2   3 -0.30732787147189D+00  0.20987549908060D+00
   1   3   2   3 -0.18373062939294D+01 -0.35053742955649D-01
   2   3   2   3  0.40618358400064D+01 -0.12411540764445D-14
   3   3   2   3  0.73319744214610D-01  0.11932110234326D+00
   1   1   3   3  0.31539217612098D+01  0.34176617338034D+01
   2   1   3   3 -0.31539358666154D+01  0.34176323553453D+01
   3   1   3   3 -0.17064216338513D+02  0.85216653208488D-04
   1   2   3   3 -0.30732954202859D+00  0.20987666597524D+00
   2   2   3   3  0.30732741844612D+00  0.20987805322258D+00
   3   2   3   3 -0.53934406165608D+01 -0.19133744309180D-04
   1   3   3   3 -0.73318482480076D-01 -0.11932167476588D+00
   2   3   3   3  0.73319730480508D-01 -0.11932110265065D+00
   3   3   3   3  0.54404261611900D+02  0.11722857897896D-13
  
 2nd derivatives (non-stat.)  - # elements :      81
 qpt  3.33333333E-01  2.50000000E-01  0.00000000E+00   1.0
   1   1   1   1  0.98680223777087D+01 -0.62497694247069D-14
   2   1   1   1 -0.48157450175968D+01 -0.17047153913030D+01
   3   1   1   1 -0.18442275829955D-13 -0.21604346366714D-14
   1   2   1   1 -0.84826742143060D+00 -0.80336778645055D+00
   2   2   1   1  0.12775700817120D+01  0.60138134011427D-01
   3   2   1   1 -0.48913095763958D+01  0.29897160485019D+01
   1   3   1   1 -0.84826742143063D+00 -0.80336778645027D+00
   2   3   1   1  0.12775700817119D+01  0.60138134011394D-01
   3   3   1   1  0.48913095763926D+01 -0.29897160485023D+01
   1   1   2   1 -0.48157449599551D+01  0.17047153805469D+01
   2   1   2   1  0.96500599526917D+01 -0.43023717343707D-13
   3   1   2   1 -0.76957086966719D-13 -0.53126257277145D-14
   1   2   2   1  0.12409131451906D+01 -0.52437453089631D-01
   2   2   2   1 -0.13149133641356D+01  0.10700630354290D+01
   3   2   2   1  0.31535598216331D+01  0.32609064885155D+01
   1   3   2   1  0.12409131451909D+01 -0.52437453089561D-01
   2   3   2   1 -0.13149133641358D+01  0.10700630354302D+01
   3   3   2   1 -0.31535598216327D+01 -0.32609064885158D+01
   1   1   3   1 -0.10250244222544D-03  0.65083498525524D-05
   2   1   3   1 -0.86478335132561D-04  0.22769645178252D-04
   3   1   3   1  0.10396517897721D+03  0.68489484984477D-13
   1   2   3   1 -0.50142470458575D+01  0.29680979796955D+01
   2   2   3   1  0.33116773191947D+01  0.33860640507184D+01
   3   2   3   1 -0.82628817997417D+01  0.20798557427325D+01
   1   3   3   1  0.50142594527461D+01 -0.29680491464480D+01
   2   3   3   1 -0.33116217403669D+01 -0.33860932072143D+01
   3   3   3   1 -0.82627928299108D+01  0.20797824493022D+01
   1   1   1   2 -0.84826197210062D+00  0.80336980182960D+00
   2   1   1   2  0.12409048746788D+01  0.52436172246026D-01
   3   1   1   2 -0.50142470121272D+01 -0.29680979390028D+01
   1   2   1   2  0.43061064887829D+01 -0.74867336336523D-14
   2   2   1   2 -0.19793850695454D+01  0.43834502452492D-01
   3   2   1   2  0.69112452800553D-01 -0.21123632915208D-01
   1   3   1   2  0.70313978822895D-01 -0.29186750798861D-06
   2   3   1   2  0.33755617417095D-01 -0.16080001763246D+00
   3   3   1   2 -0.28016042854096D+00 -0.53724358927314D-01
   1   1   2   2  0.12775765879265D+01 -0.60142026799372D-01
   2   1   2   2 -0.13149156683285D+01 -0.10700567128060D+01
   3   1   2   2  0.33116773826781D+01 -0.33860641167219D+01
   1   2   2   2 -0.19793850829879D+01 -0.43834523854372D-01
   2   2   2   2  0.41021127667238D+01 -0.87436786985646D-15
   3   2   2   2 -0.27850370158211D-01 -0.91502182857082D-01
   1   3   2   2  0.33756700068174D-01  0.16079841354700D+00
   2   3   2   2 -0.93389331029106D-02  0.70143322962273D-06
   3   3   2   2  0.11192630257979D+00 -0.12343560084316D+00
   1   1   3   2 -0.48913160989525D+01 -0.29896951016157D+01
   2   1   3   2  0.31535440357964D+01 -0.32609339990065D+01
   3   1   3   2 -0.82628818496150D+01 -0.20798557705443D+01
   1   2   3   2  0.69112433875549D-01  0.21123616103449D-01
   2   2   3   2 -0.27850381220962D-01  0.91502133934377D-01
   3   2   3   2  0.53156779358739D+02  0.10080174858786D-13
   1   3   3   2  0.28015871600701D+00 -0.53729065258092D-01
   2   3   3   2 -0.11192529124174D+00 -0.12343211516754D+00
   3   3   3   2 -0.48737432187967D+01  0.17044770242703D-04
   1   1   1   3 -0.84826742143063D+00  0.80336778645027D+00
   2   1   1   3  0.12409131451909D+01  0.52437453089561D-01
   3   1   1   3  0.50142594527461D+01  0.29680491464480D+01
   1   2   1   3  0.70313978822895D-01  0.29186750798861D-06
   2   2   1   3  0.33756700068174D-01 -0.16079841354700D+00
   3   2   1   3  0.28015871600701D+00  0.53729065258092D-01
   1   3   1   3  0.43061064887829D+01 -0.74867336336523D-14
   2   3   1   3 -0.19793850695454D+01  0.43834502452492D-01
   3   3   1   3 -0.69112452800555D-01  0.21123632915208D-01
   1   1   2   3  0.12775700817119D+01 -0.60138134011394D-01
   2   1   2   3 -0.13149133641358D+01 -0.10700630354302D+01
   3   1   2   3 -0.33116217403669D+01  0.33860932072143D+01
   1   2   2   3  0.33755617417095D-01  0.16080001763246D+00
   2   2   2   3 -0.93389331029106D-02 -0.70143322962273D-06
   3   2   2   3 -0.11192529124174D+00  0.12343211516754D+00
   1   3   2   3 -0.19793850829879D+01 -0.43834523854372D-01
   2   3   2   3  0.41021127667239D+01 -0.87436786985646D-15
   3   3   2   3  0.27850370158214D-01  0.91502182857082D-01
   1   1   3   3  0.48913095763926D+01  0.29897160485023D+01
   2   1   3   3 -0.31535598216327D+01  0.32609064885158D+01
   3   1   3   3 -0.82627928299108D+01 -0.20797824493022D+01
   1   2   3   3 -0.28016042854096D+00  0.53724358927314D-01
   2   2   3   3  0.11192630257979D+00  0.12343560084316D+00
   3   2   3   3 -0.48737432187967D+01 -0.17044770242703D-04
   1   3   3   3 -0.69112433875552D-01 -0.21123616103449D-01
   2   3   3   3  0.27850381220965D-01 -0.91502133934377D-01
   3   3   3   3  0.53156779358739D+02  0.10080174858786D-13
  
 2nd derivatives (non-stat.)  - # elements :      81
 qpt  3.33333333E-01  3.33333333E-01  0.00000000E+00   1.0
   1   1   1   1  0.98314178318351D+01 -0.44668074488332D-14
   2   1   1   1 -0.49157087476879D+01 -0.18856668815334D+01
   3   1   1   1  0.75426546577819D-14  0.24733945771006D-14
   1   2   1   1 -0.54262096591108D+00 -0.93984729160300D+00
   2   2   1   1  0.10852420917325D+01  0.80805936887297D-07
   3   2   1   1 -0.49210411122601D+01  0.28411591156008D+01
   1   3   1   1 -0.54262096591128D+00 -0.93984729160130D+00
   2   3   1   1  0.10852420917321D+01  0.80805947527455D-07
   3   3   1   1  0.49210411122590D+01 -0.28411591156003D+01
   1   1   2   1 -0.49157087476881D+01  0.18856668815334D+01
   2   1   2   1  0.98314178317560D+01 -0.38331959016538D-13
   3   1   2   1 -0.94139622050060D-04 -0.11995670216445D-04
   1   2   2   1  0.10852360568346D+01  0.33384913496634D-05
   2   2   2   1 -0.54262096587568D+00  0.93984729152253D+00
   3   2   2   1  0.49210350007316D+01  0.28411857189196D+01
   1   3   2   1  0.10852420917325D+01 -0.80735740573138D-07
   2   3   2   1 -0.54262096587548D+00  0.93984729152425D+00
   3   3   2   1 -0.49210411122286D+01 -0.28411591155462D+01
   1   1   3   1 -0.99706808579839D-04  0.10293081244354D-04
   2   1   3   1 -0.94139622050060D-04  0.11995670216445D-04
   3   1   3   1  0.10363756260923D+03  0.58907655021056D-13
   1   2   3   1 -0.50591959673197D+01  0.29209509949196D+01
   2   2   3   1  0.50592234342352D+01  0.29209271562793D+01
   3   2   3   1 -0.39035899122562D-04  0.21006891939361D-04
   1   3   3   1  0.50592230709998D+01 -0.29209116914085D+01
   2   3   3   1 -0.50591877586693D+01 -0.29209491395006D+01
   3   3   3   1  0.37988379909171D-04 -0.20995189511464D-04
   1   1   1   2 -0.54261767780867D+00  0.93984911054972D+00
   2   1   1   2  0.10852360568346D+01 -0.33384913496634D-05
   3   1   1   2 -0.50591959795182D+01 -0.29209509973588D+01
   1   2   1   2  0.43244989817656D+01 -0.76899389860583D-14
   2   2   1   2 -0.21622515810414D+01  0.49193026184570D-01
   3   2   1   2 -0.25429729447791D-05  0.91301423778033D-05
   1   3   1   2  0.53524450557262D-01 -0.84727801900814D-07
   2   3   1   2 -0.26762577686600D-01 -0.17135862865280D+00
   3   3   1   2 -0.11543271045470D-05  0.30386159331958D-05
   1   1   2   2  0.10852420917325D+01 -0.80805936887297D-07
   2   1   2   2 -0.54262096587568D+00 -0.93984729152253D+00
   3   1   2   2  0.50592234342352D+01 -0.29209271562793D+01
   1   2   2   2 -0.21622515810414D+01 -0.49193026184564D-01
   2   2   2   2  0.43244989817404D+01 -0.85800943127770D-15
   3   2   2   2  0.46770710209216D-05  0.67612796761404D-05
   1   3   2   2 -0.26761857935104D-01  0.17135871338060D+00
   2   3   2   2  0.53524450553164D-01 -0.84727801389290D-07
   3   3   2   2 -0.11675763855440D-05 -0.30496527187255D-05
   1   1   3   2 -0.49210444116457D+01 -0.28411487298344D+01
   2   1   3   2  0.49210350007316D+01 -0.28411857189196D+01
   3   1   3   2 -0.39031290160087D-04 -0.21009017123618D-04
   1   2   3   2 -0.25438283197450D-05 -0.91291836669515D-05
   2   2   3   2  0.46770710209216D-05 -0.67612796761404D-05
   3   2   3   2  0.52535523571359D+02  0.98205726487392D-14
   1   3   3   2 -0.11675763857984D-05 -0.30496328105637D-05
   2   3   3   2  0.61452240226765D-06  0.23849256496037D-05
   3   3   3   2 -0.45791411782943D+01  0.75117519290322D-05
   1   1   1   3 -0.54262096591128D+00  0.93984729160130D+00
   2   1   1   3  0.10852420917325D+01  0.80735740573138D-07
   3   1   1   3  0.50592230709998D+01  0.29209116914085D+01
   1   2   1   3  0.53524450557262D-01  0.84727801900814D-07
   2   2   1   3 -0.26761857935104D-01 -0.17135871338060D+00
   3   2   1   3 -0.11675763857984D-05  0.30496328105637D-05
   1   3   1   3  0.43244989817655D+01 -0.76899389860583D-14
   2   3   1   3 -0.21622515810414D+01  0.49193026184570D-01
   3   3   1   3  0.46769504757708D-05 -0.67612796761404D-05
   1   1   2   3  0.10852420917321D+01 -0.80805947527455D-07
   2   1   2   3 -0.54261767777307D+00 -0.93984911047097D+00
   3   1   2   3 -0.50591877586693D+01  0.29209491395006D+01
   1   2   2   3 -0.26762577686600D-01  0.17135862865280D+00
   2   2   2   3  0.53524450553164D-01  0.84727801389290D-07
   3   2   2   3  0.61452240226765D-06 -0.23849256496037D-05
   1   3   2   3 -0.21622515810414D+01 -0.49193026184564D-01
   2   3   2   3  0.43244989817405D+01 -0.85800943127770D-15
   3   3   2   3 -0.25430934889264D-05 -0.91301423778033D-05
   1   1   3   3  0.49210411122590D+01  0.28411591156003D+01
   2   1   3   3 -0.49210444116142D+01  0.28411487297798D+01
   3   1   3   3  0.37988379909171D-04  0.20995189511464D-04
   1   2   3   3 -0.11543271045470D-05 -0.30386159331958D-05
   2   2   3   3 -0.11675763855440D-05  0.30496527187255D-05
   3   2   3   3 -0.45791411782943D+01 -0.75117519290322D-05
   1   3   3   3  0.46769504757708D-05  0.67612796761404D-05
   2   3   3   3 -0.25439488638922D-05  0.91291836669515D-05
   3   3   3   3  0.52535523571359D+02  0.98205726487392D-14
  
 2nd derivatives (non-stat.)  - # elements :     113
 qpt  0.00000000E+00  0.00000000E+00  0.00000000E+00   1.0
   1   1   1   1  0.71368622968835D+01  0.00000000000000D+00
   2   1   1   1 -0.35684309504431D+01  0.00000000000000D+00
   3   1   1   1 -0.35907254812423D-13  0.00000000000000D+00
   1   2   1   1 -0.35451350554377D+01  0.27087925249755D-15
   2   2   1   1  0.17725660468670D+01  0.64949723305868D-16
   3   2   1   1  0.36332947903375D-06  0.73618533438701D-16
   1   3   1   1 -0.35451350554378D+01 -0.46146432816630D-17
   2   3   1   1  0.17725660468670D+01 -0.34148260556944D-16
   3   3   1   1 -0.36332950570329D-06 -0.40707704669134D-18
   2   5   1   1  0.00000000000000D+00  0.00000000000000D+00
   3   5   1   1  0.00000000000000D+00  0.00000000000000D+00
   1   1   2   1 -0.35684309504434D+01  0.00000000000000D+00
   2   1   2   1  0.71368622968462D+01  0.00000000000000D+00
   3   1   2   1  0.25894721511804D-13  0.00000000000000D+00
   1   2   2   1  0.17725588262708D+01  0.64949723305868D-16
   2   2   2   1 -0.35451350554195D+01  0.42495548049187D-16
   3   2   2   1 -0.51139557776668D-10 -0.92641542699064D-16
   1   3   2   1  0.17725660468670D+01 -0.34148260556944D-16
   2   3   2   1 -0.35451350554195D+01  0.45520181715099D-15
   3   3   2   1  0.36345002368279D-06  0.93824153559208D-16
   1   5   2   1  0.00000000000000D+00  0.00000000000000D+00
   3   5   2   1  0.00000000000000D+00  0.00000000000000D+00
   1   1   3   1 -0.22086674230346D-13  0.00000000000000D+00
   2   1   3   1  0.25894721511804D-13  0.00000000000000D+00
   3   1   3   1  0.12055076483263D+03  0.00000000000000D+00
   1   2   3   1 -0.31780799286248D-13  0.73618533438701D-16
   2   2   3   1 -0.40181878784200D-10 -0.92641542699064D-16
   3   2   3   1 -0.59970702260645D+02 -0.35335153480285D-13
   1   3   3   1  0.52397805269045D-13 -0.40707704669134D-18
   2   3   3   1  0.40203305000229D-10  0.93824153559208D-16
   3   3   3   1 -0.59970209087651D+02  0.64017644483083D-14
   1   5   3   1  0.00000000000000D+00  0.00000000000000D+00
   2   5   3   1  0.00000000000000D+00  0.00000000000000D+00
   1   1   1   2 -0.35451394766878D+01 -0.27087925249755D-15
   2   1   1   2  0.17725588262708D+01 -0.64949723305868D-16
   3   1   1   2  0.14408596020795D-04 -0.73618533438701D-16
   1   2   1   2  0.33685787510090D+01  0.00000000000000D+00
   2   2   1   2 -0.16842922326884D+01  0.00000000000000D+00
   3   2   1   2  0.10470651949597D-05  0.00000000000000D+00
   1   3   1   2  0.17738270944372D+00 -0.77288572377628D-16
   2   3   1   2 -0.88691968210260D-01  0.53205977306159D-16
   3   3   1   2 -0.12507586011661D-05  0.15201104959156D-16
   2   5   1   2  0.00000000000000D+00  0.00000000000000D+00
   3   5   1   2  0.00000000000000D+00  0.00000000000000D+00
   1   1   2   2  0.17725660468670D+01 -0.64949723305868D-16
   2   1   2   2 -0.35451350554195D+01 -0.42495548049187D-16
   3   1   2   2 -0.40181878784200D-10  0.92641542699064D-16
   1   2   2   2 -0.16842922326884D+01  0.00000000000000D+00
   2   2   2   2  0.33685787509916D+01  0.00000000000000D+00
   3   2   2   2  0.11467503917333D-09  0.00000000000000D+00
   1   3   2   2 -0.88691354721860D-01  0.53205977306159D-16
   2   3   2   2  0.17738270944279D+00 -0.34866473139489D-17
   3   3   2   2  0.10814186261195D-13  0.98517959144041D-17
   1   5   2   2  0.00000000000000D+00  0.00000000000000D+00
   3   5   2   2  0.00000000000000D+00  0.00000000000000D+00
   1   1   3   2 -0.96742868346248D-13 -0.73618533438701D-16
   2   1   3   2 -0.51139557776668D-10  0.92641542699064D-16
   3   1   3   2 -0.59970702292887D+02  0.35335153480285D-13
   1   2   3   2  0.89778243168401D-13  0.00000000000000D+00
   2   2   3   2  0.11467503917333D-09  0.00000000000000D+00
   3   2   3   2  0.66696875557737D+02  0.00000000000000D+00
   1   3   3   2  0.11293511289619D-13  0.15201104959156D-16
   2   3   3   2  0.21664638401460D-12  0.98517959144041D-17
   3   3   3   2 -0.67145345965280D+01 -0.33053822003934D-14
   1   1   1   3 -0.35451350554378D+01  0.46146432816630D-17
[...]
   1   2   2   2 -0.17819871297589D+01  0.28972464530125D-05
   2   2   2   2  0.35639787761567D+01 -0.13459285721152D-14
   3   2   2   2  0.21095875604202D-05  0.98645158791357D-05
   1   3   2   2  0.32499504280390D-01  0.52133132819514D-06
   2   3   2   2 -0.64997224028833D-01 -0.67348995876908D-06
   3   3   2   2 -0.23011216830481D-05 -0.94100850740339D-06
   1   1   3   2 -0.51461224074170D+01 -0.31139621946192D+01
   2   1   3   2 -0.30876256845073D-10  0.12993605987007D-10
   3   1   3   2 -0.26439285967973D+02  0.15902400876141D+02
   1   2   3   2  0.76101588546525D-01  0.25438654763891D+00
   2   2   3   2  0.11578138388111D-09 -0.12991079671645D-14
   3   2   3   2  0.57617550346765D+02  0.10240126520401D-13
   1   3   3   2  0.48932869357252D+00 -0.57145951582907D+00
   2   3   3   2  0.83384532376829D-14 -0.32379786519975D-12
   3   3   3   2 -0.65592277781415D+01  0.16120626632037D-04
   1   1   1   3 -0.13700068971911D+01  0.10718745403514D+01
   2   1   1   3  0.13850174039321D+01 -0.32870043116855D+00
   3   1   1   3  0.51738685970548D+01  0.32987405665392D+01
   1   2   1   3  0.21823259362681D+00  0.50097737261600D-06
   2   2   1   3  0.32499504280390D-01 -0.52133132819514D-06
   3   2   1   3  0.48932869357252D+00  0.57145951582907D+00
   1   3   1   3  0.41406745441345D+01  0.92015077378055D-08
   2   3   1   3 -0.17819916427472D+01  0.28880449389167D-05
   3   3   1   3 -0.76104669045724D-01  0.25438502273778D+00
   1   1   2   3  0.13850174744613D+01 -0.32870039767655D+00
   2   1   2   3 -0.27700349333091D+01  0.65740079992641D+00
   3   1   2   3  0.24345233250510D-10 -0.10368668059791D-10
   1   2   2   3  0.32497710344162D-01 -0.49907377002361D-06
   2   2   2   3 -0.64997224028833D-01  0.67348995876908D-06
   3   2   2   3  0.83384532376829D-14  0.32379786519975D-12
   1   3   2   3 -0.17819916463913D+01 -0.28972464457266D-05
   2   3   2   3  0.35639787761568D+01 -0.13459285721152D-14
   3   3   2   3  0.21093466427423D-05  0.98645158791357D-05
   1   1   3   3  0.51461248066992D+01  0.31139670761103D+01
   2   1   3   3  0.93557107514753D-07 -0.15031804784379D-06
   3   1   3   3 -0.26438849271589D+02  0.15902577927442D+02
   1   2   3   3 -0.48932446130374D+00  0.57146113148912D+00
   2   2   3   3 -0.23011216830481D-05  0.94100850740339D-06
   3   2   3   3 -0.65592277781415D+01 -0.16120626632037D-04
   1   3   3   3 -0.76101588541829D-01 -0.25438654763891D+00
   2   3   3   3 -0.12513629401284D-09 -0.12991079671645D-14
   3   3   3   3  0.57617550346765D+02  0.10240126520401D-13
  
 2nd derivatives (non-stat.)  - # elements :      81
 qpt  4.16666667E-01  0.00000000E+00  0.00000000E+00   1.0
   1   1   1   1  0.99575602966434D+01 -0.15181732895119D-15
   2   1   1   1 -0.44147279354868D+01 -0.10686244801845D-07
   3   1   1   1  0.20503730283295D-13 -0.94455842304384D-13
   1   2   1   1 -0.88104884817525D+00 -0.60770570550986D+00
   2   2   1   1  0.13217838611664D+01  0.18320618626945D+00
   3   2   1   1 -0.63987336255294D+01  0.18022397458895D+01
   1   3   1   1 -0.88104884817525D+00 -0.60770570551000D+00
   2   3   1   1  0.13217838611664D+01  0.18320618626942D+00
   3   3   1   1  0.63987336255308D+01 -0.18022397458863D+01
   1   1   2   1 -0.44147279456513D+01 -0.23980467122060D-07
   2   1   2   1  0.88294562787742D+01  0.19891206220316D-14
   3   1   2   1  0.26566968507676D-13  0.33006059220577D-14
   1   2   2   1  0.13217838056594D+01  0.18320621886766D+00
   2   2   2   1 -0.26435676915651D+01 -0.36641237757195D+00
   3   2   2   1  0.96805977022839D-08 -0.41020510584364D-07
   1   3   2   1  0.13217838056597D+01  0.18320621886768D+00
   2   3   2   1 -0.26435676915653D+01 -0.36641237757198D+00
   3   3   2   1 -0.96805844953047D-08  0.41020502903396D-07
   1   1   3   1 -0.36873173608006D-03  0.83143862106269D-04
   2   1   3   1  0.29678202562431D-12 -0.68851361213006D-14
   3   1   3   1  0.10550616029536D+03 -0.95812273873634D-15
   1   2   3   1 -0.63064205347963D+01  0.18447008119712D+01
   2   2   3   1 -0.20081368100458D-10 -0.61050765086132D-11
   3   2   3   1 -0.18778484001379D+02 -0.90373326924971D+01
   1   3   3   1  0.63064298300768D+01 -0.18446104870135D+01
   2   3   3   1  0.20094491571089D-10  0.61204054621072D-11
   3   3   3   1 -0.18778148796385D+02 -0.90373857479421D+01
   1   1   1   2 -0.88104217568201D+00  0.60770311418080D+00
   2   1   1   2  0.13217790031588D+01 -0.18320851892928D+00
   3   1   1   2 -0.63064344104545D+01 -0.18446530337035D+01
   1   2   1   2  0.43572744767536D+01 -0.33376571630578D-14
   2   2   1   2 -0.18039900549162D+01 -0.27766503056140D-05
   3   2   1   2  0.12343141481075D+00 -0.14475553982067D+00
   1   3   1   2  0.21773788598715D+00 -0.31825015718851D-06
   2   3   1   2  0.53355336252479D-01  0.29253825346220D-06
   3   3   1   2 -0.64092581015947D+00 -0.33262937983677D+00
   1   1   2   2  0.13217864228738D+01 -0.18320923975147D+00
   2   1   2   2 -0.26435669637427D+01  0.36641617719250D+00
   3   1   2   2  0.42408469246711D-04 -0.11872380377631D-04
   1   2   2   2 -0.18039900512072D+01  0.27766341351366D-05
   2   2   2   2  0.36079855614605D+01 -0.79137983511130D-15
   3   2   2   2  0.29191663275689D-05  0.89546924932140D-05
   1   3   2   2  0.53356916225351D-01  0.30143171589397D-06
   2   3   2   2 -0.10671226468172D+00 -0.42642120503482D-06
   3   3   2   2 -0.23183796979793D-05 -0.74384551500293D-06
   1   1   3   2 -0.63987348586800D+01 -0.18022407055089D+01
   2   1   3   2 -0.25941929191784D-10  0.74518690327784D-11
   3   1   3   2 -0.18778483991344D+02  0.90373327361842D+01
   1   2   3   2  0.12343059100486D+00  0.14474723757677D+00
   2   2   3   2  0.11589799564263D-09 -0.86744219168104D-14
   3   2   3   2  0.55905537119509D+02  0.55703067271274D-14
   1   3   3   2  0.64093053154087D+00 -0.33263006964520D+00
   2   3   3   2 -0.51020225505206D-13 -0.21730508024036D-12
   3   3   3   2 -0.62078902086303D+01  0.10248202851398D-04
   1   1   1   3 -0.88104884817525D+00  0.60770570551000D+00
   2   1   1   3  0.13217838056597D+01 -0.18320621886768D+00
   3   1   1   3  0.63064298300768D+01  0.18446104870135D+01
   1   2   1   3  0.21773788598715D+00  0.31825015718851D-06
   2   2   1   3  0.53356916225351D-01 -0.30143171589397D-06
   3   2   1   3  0.64093053154087D+00  0.33263006964520D+00
   1   3   1   3  0.43572799320783D+01 -0.16177691180354D-10
   2   3   1   3 -0.18039955065319D+01  0.27766503094901D-05
   3   3   1   3 -0.12343433385661D+00  0.14474658512817D+00
   1   1   2   3  0.13217838611664D+01 -0.18320618626942D+00
   2   1   2   3 -0.26435676915653D+01  0.36641237757198D+00
   3   1   2   3  0.20094491571089D-10 -0.61204054621072D-11
   1   2   2   3  0.53355336252479D-01 -0.29253825346220D-06
   2   2   2   3 -0.10671226468172D+00  0.42642120503482D-06
   3   2   2   3 -0.51020225505206D-13  0.21730508024036D-12
   1   3   2   3 -0.18039955102409D+01 -0.27766341312605D-05
   2   3   2   3  0.36079855614606D+01 -0.79137983511130D-15
   3   3   2   3  0.29189254098910D-05  0.89546924932140D-05
   1   1   3   3  0.63987336255308D+01  0.18022397458863D+01
   2   1   3   3 -0.96805844953047D-08 -0.41020502903396D-07
   3   1   3   3 -0.18778148796385D+02  0.90373857479421D+01
   1   2   3   3 -0.64092581015947D+00  0.33262937983677D+00
   2   2   3   3 -0.23183796979793D-05  0.74384551500293D-06
   3   2   3   3 -0.62078902086303D+01 -0.10248202851398D-04
   1   3   3   3 -0.12343059100029D+00 -0.14474723757676D+00
   2   3   3   3 -0.12501968225132D-09 -0.86744219168104D-14
   3   3   3   3  0.55905537119509D+02  0.55703067271274D-14
  
 2nd derivatives (non-stat.)  - # elements :      81
 qpt  5.00000000E-01  0.00000000E+00  0.00000000E+00   1.0
   1   1   1   1  0.10082001796118D+02  0.00000000000000D+00
   2   1   1   1 -0.44339423112872D+01  0.21513069156455D-09
   3   1   1   1  0.39625739686386D-14  0.37071749349028D-15
   1   2   1   1 -0.70500666980384D+00 -0.41186524077010D-06
   2   2   1   1  0.13026321707134D+01  0.37893150584479D-06
   3   2   1   1 -0.68525608466373D+01 -0.68425941680511D-05
   1   3   1   1 -0.70500666980325D+00 -0.41186524222640D-06
   2   3   1   1  0.13026321707134D+01  0.37893150796405D-06
   3   3   1   1  0.68525608466383D+01  0.68425941635864D-05
   1   1   2   1 -0.44339423742083D+01  0.51066854240255D-08
   2   1   2   1  0.88678850732067D+01  0.00000000000000D+00
   3   1   2   1 -0.15127552112146D-13  0.31465809383791D-14
   1   2   2   1  0.13026320911161D+01  0.40079496624636D-06
   2   2   2   1 -0.26052643111297D+01 -0.75791724432060D-06
   3   2   2   1  0.13204861116113D-08  0.28907942362196D-07
   1   3   2   1  0.13026320911158D+01  0.40079496769719D-06
   2   3   2   1 -0.26052643111289D+01 -0.75791724923844D-06
   3   3   2   1 -0.13204833563087D-08 -0.28907942547437D-07
   1   1   3   1 -0.36642055168363D-03  0.74104469070319D-04
   2   1   3   1  0.70387973262034D-14  0.89416910532742D-14
   3   1   3   1  0.10385723672615D+03  0.00000000000000D+00
   1   2   3   1 -0.67203869727382D+01  0.37953068075399D-04
   2   2   3   1 -0.18483247955241D-10 -0.21409447058241D-13
   3   2   3   1 -0.16012207420469D+02 -0.35373989817449D-06
   1   3   3   1  0.67203860584923D+01  0.44646040392883D-04
   2   3   3   1  0.18464134170562D-10  0.17578881145203D-13
   3   3   3   1 -0.16012028261946D+02 -0.16431685350224D-04
   1   1   1   2 -0.70499858511153D+00 -0.26655671307868D-05
   2   1   1   2  0.13026265663358D+01 -0.36735229779941D-06
   3   1   1   2 -0.67203999344310D+01  0.68985236255614D-05
   1   2   1   2  0.44416882594246D+01  0.00000000000000D+00
   2   2   1   2 -0.18124981343889D+01 -0.27274742433765D-05
   3   2   1   2  0.14430283835660D+00  0.71936264339256D-05
   1   3   1   2  0.21567255448286D+00  0.28724577371588D-07
   2   3   1   2  0.60295099604822D-01 -0.16575818184425D-06
   3   3   1   2 -0.69763653278137D+00  0.72583658094403D-06
   1   1   2   2  0.13026337875540D+01 -0.82967931642269D-06
   2   1   2   2 -0.26052621267173D+01  0.92064312490761D-06
   3   1   2   2  0.42899927963708D-04 -0.85827513870813D-05
   1   2   2   2 -0.18124981480232D+01  0.27268735530277D-05
   2   2   2   2  0.36250025367820D+01  0.00000000000000D+00
   3   2   2   2  0.40401008183484D-05  0.83756953676663D-05
   1   3   2   2  0.60296790106713D-01 -0.16618286883603D-06
   2   3   2   2 -0.12059192109300D+00  0.51314710869789D-06
   3   3   2   2 -0.21496625851435D-05 -0.98550017400910D-06
   1   1   3   2 -0.68525733020639D+01 -0.17536862727435D-04
   2   1   3   2 -0.24158280139839D-10  0.77147156774217D-14
   3   1   3   2 -0.16012207386921D+02  0.35145653462386D-06
   1   2   3   2  0.14430342442706D+00 -0.15727826360275D-04
   2   2   3   2  0.11596709516241D-09  0.35520856092433D-14
   3   2   3   2  0.55307767219874D+02  0.00000000000000D+00
   1   3   3   2  0.69764004683529D+00 -0.86609986629196D-06
   2   3   3   2 -0.66470552363142D-13  0.39453783454500D-14
   3   3   3   2 -0.60342856633816D+01  0.45146366085462D-05
   1   1   1   3 -0.70500666980325D+00  0.41186524222640D-06
   2   1   1   3  0.13026320911158D+01 -0.40079496769719D-06
   3   1   1   3  0.67203860584923D+01 -0.44646040392883D-04
   1   2   1   3  0.21567255448286D+00 -0.28724577371588D-07
   2   2   1   3  0.60296790106713D-01  0.16618286883603D-06
   3   2   1   3  0.69764004683529D+00  0.86609986629196D-06
   1   3   1   3  0.44416945137799D+01 -0.60069034875926D-09
   2   3   1   3 -0.18125044023785D+01  0.27274742433765D-05
   3   3   1   3 -0.14430687833696D+00 -0.15569321801592D-04
   1   1   2   3  0.13026321707134D+01 -0.37893150796405D-06
   2   1   2   3 -0.26052643111289D+01  0.75791724923844D-06
   3   1   2   3  0.18464134170562D-10 -0.17578881145203D-13
   1   2   2   3  0.60295099604822D-01  0.16575818184425D-06
   2   2   2   3 -0.12059192109300D+00 -0.51314710869789D-06
   3   2   2   3 -0.66470552363142D-13 -0.39453783454500D-14
   1   3   2   3 -0.18125043887443D+01 -0.27268735530277D-05
   2   3   2   3  0.36250025367821D+01  0.00000000000000D+00
   3   3   2   3  0.40398599006705D-05  0.83756953676663D-05
   1   1   3   3  0.68525608466383D+01 -0.68425941635864D-05
   2   1   3   3 -0.13204833563087D-08  0.28907942547437D-07
   3   1   3   3 -0.16012028261946D+02  0.16431685350224D-04
   1   2   3   3 -0.69763653278137D+00 -0.72583658094403D-06
   2   2   3   3 -0.21496625851435D-05  0.98550017400910D-06
   3   2   3   3 -0.60342856633816D+01 -0.45146366085462D-05
   1   3   3   3 -0.14430342442257D+00  0.15727826356723D-04
   2   3   3   3 -0.12495058273154D-09  0.35520856092433D-14
   3   3   3   3  0.55307767219874D+02  0.00000000000000D+00
  
 2nd derivatives (non-stat.)  - # elements :      81
 qpt  8.33333333E-02  8.33333333E-02  0.00000000E+00   1.0
   1   1   1   1  0.77692803496120D+01 -0.42534929032198D-14
   2   1   1   1 -0.37831131353034D+01 -0.11044106470081D+00
   3   1   1   1  0.38908538287792D-13  0.39283177978221D-13
   1   2   1   1 -0.32928171347315D+01 -0.28602927447723D+00
   2   2   1   1  0.17475953735219D+01  0.18461375495910D-01
   3   2   1   1 -0.43784084595207D+00  0.17333247606030D+01
   1   3   1   1 -0.32928171347315D+01 -0.28602927447757D+00
   2   3   1   1  0.17475953735221D+01  0.18461375495914D-01
   3   3   1   1  0.43784084595204D+00 -0.17333247606030D+01
   1   1   2   1 -0.37831131353037D+01  0.11044106470084D+00
   2   1   2   1  0.77692803495497D+01 -0.17853810305864D-13
   3   1   2   1 -0.93354790640757D-04 -0.17806467559247D-04
   1   2   2   1  0.17475894453486D+01 -0.18463638155981D-01
   2   2   2   1 -0.32928171347100D+01  0.28602927444850D+00
   3   2   2   1  0.43783054573827D+00  0.17333322471274D+01
   1   3   2   1  0.17475953735218D+01 -0.18461375475647D-01
   2   3   2   1 -0.32928171347099D+01  0.28602927444815D+00
   3   3   2   1 -0.43784084583568D+00 -0.17333247605993D+01
   1   1   3   1 -0.70653838083889D-04  0.23138641158395D-04
   2   1   3   1 -0.93354790640757D-04  0.17806467559247D-04
   3   1   3   1  0.11867114308844D+03  0.32581622935971D-13
   1   2   3   1 -0.36122398155607D+00  0.20666859731911D+01
   2   2   3   1  0.36127602278879D+00  0.20666751376107D+01
   3   2   3   1 -0.53176701852493D+02 -0.36056373455222D-04
   1   3   3   1  0.36127546236849D+00 -0.20666729425044D+01
   2   3   3   1 -0.36122033833337D+00 -0.20666834020353D+01
   3   3   3   1 -0.53176650671882D+02 -0.42017095677332D-04
   1   1   1   2 -0.32928214007791D+01  0.28602694681410D+00
   2   1   1   2  0.17475894453486D+01  0.18463638155981D-01
   3   1   1   2 -0.36122376148193D+00 -0.20666868761489D+01
   1   2   1   2  0.34784143259969D+01 -0.34664532734081D-14
   2   2   1   2 -0.16682687491974D+01 -0.45708619975365D-03
   3   2   1   2 -0.10411754162972D-01 -0.12871530592085D+00
   1   3   1   2  0.13734133424985D+00 -0.42506086012936D-06
   2   3   1   2 -0.23747271887746D-01 -0.23176827951508D-01
   3   3   1   2 -0.97462172479766D-01 -0.30474433490213D+00
   1   1   2   2  0.17475953735219D+01 -0.18461375495910D-01
   2   1   2   2 -0.32928171347100D+01 -0.28602927444850D+00
   3   1   2   2  0.36127602278879D+00 -0.20666751376107D+01
   1   2   2   2 -0.16682687491974D+01  0.45708619975798D-03
   2   2   2   2  0.34784143259748D+01 -0.72162480192535D-15
   3   2   2   2  0.10413755406557D-01 -0.12871387099381D+00
   1   3   2   2 -0.23747271887746D-01  0.23176827951508D-01
   2   3   2   2  0.13734133424856D+00 -0.42506086085966D-06
   3   3   2   2  0.97460259215871D-01 -0.30474049163590D+00
   1   1   3   2 -0.43784588639010D+00 -0.17333270044911D+01
   2   1   3   2  0.43783054573827D+00 -0.17333322471274D+01
   3   1   3   2 -0.53176695191021D+02  0.35883793393617D-04
   1   2   3   2 -0.10413477388029D-01  0.12871661599667D+00
   2   2   3   2  0.10413755406557D-01  0.12871387099381D+00
   3   2   3   2  0.63927107575371D+02  0.59861483274147D-14
   1   3   3   2  0.97460259215873D-01 -0.30474049163375D+00
   2   3   3   2 -0.97460516086343D-01 -0.30474168838198D+00
   3   3   3   2 -0.68239191312800D+01  0.65797649755192D-05
   1   1   1   3 -0.32928171347315D+01  0.28602927447757D+00
   2   1   1   3  0.17475953735218D+01  0.18461375475647D-01
   3   1   1   3  0.36127546236849D+00  0.20666729425044D+01
   1   2   1   3  0.13734133424985D+00  0.42506086012936D-06
   2   2   1   3 -0.23747271887746D-01 -0.23176827951508D-01
   3   2   1   3  0.97460259215873D-01  0.30474049163375D+00
   1   3   1   3  0.34784143259969D+01 -0.34664532734081D-14
   2   3   1   3 -0.16682687491974D+01 -0.45708619975365D-03
   3   3   1   3  0.10413755286022D-01  0.12871387099381D+00
   1   1   2   3  0.17475953735221D+01 -0.18461375495914D-01
   2   1   2   3 -0.32928214007575D+01 -0.28602694678503D+00
   3   1   2   3 -0.36122033833337D+00  0.20666834020353D+01
   1   2   2   3 -0.23747271887746D-01  0.23176827951508D-01
   2   2   2   3  0.13734133424856D+00  0.42506086085966D-06
   3   2   2   3 -0.97460516086343D-01  0.30474168838198D+00
   1   3   2   3 -0.16682687491974D+01  0.45708619975798D-03
   2   3   2   3  0.34784143259749D+01 -0.72162480192535D-15
   3   3   2   3 -0.10411754283527D-01  0.12871530592085D+00
   1   1   3   3  0.43784084595204D+00  0.17333247606030D+01
   2   1   3   3 -0.43784588627372D+00  0.17333270044874D+01
   3   1   3   3 -0.53176650671882D+02  0.42017095677332D-04
   1   2   3   3 -0.97462172479766D-01  0.30474433490213D+00
   2   2   3   3  0.97460259215871D-01  0.30474049163590D+00
   3   2   3   3 -0.68239191312800D+01 -0.65797649755192D-05
   1   3   3   3  0.10413755286022D-01 -0.12871387099381D+00
   2   3   3   3 -0.10413477508584D-01 -0.12871661599667D+00
   3   3   3   3  0.63927107575371D+02  0.59861483274147D-14

 List of bloks and their characteristics 
  
 2nd derivatives (non-stat.)  - # elements :      81
 qpt  1.66666667E-01  8.33333333E-02  0.00000000E+00   1.0
  
 2nd derivatives (non-stat.)  - # elements :      81
 qpt  2.50000000E-01  8.33333333E-02  0.00000000E+00   1.0
  
 2nd derivatives (non-stat.)  - # elements :      81
 qpt  3.33333333E-01  8.33333333E-02  0.00000000E+00   1.0
  
 2nd derivatives (non-stat.)  - # elements :      81
 qpt  4.16666667E-01  8.33333333E-02  0.00000000E+00   1.0
  
 2nd derivatives (non-stat.)  - # elements :      81
 qpt  1.66666667E-01  1.66666667E-01  0.00000000E+00   1.0
  
 2nd derivatives (non-stat.)  - # elements :      81
 qpt  2.50000000E-01  1.66666667E-01  0.00000000E+00   1.0
  
 2nd derivatives (non-stat.)  - # elements :      81
 qpt  3.33333333E-01  1.66666667E-01  0.00000000E+00   1.0
  
 2nd derivatives (non-stat.)  - # elements :      81
 qpt  4.16666667E-01  1.66666667E-01  0.00000000E+00   1.0
  
 2nd derivatives (non-stat.)  - # elements :      81
 qpt  2.50000000E-01  2.50000000E-01  0.00000000E+00   1.0
  
 2nd derivatives (non-stat.)  - # elements :      81
 qpt  3.33333333E-01  2.50000000E-01  0.00000000E+00   1.0
  
 2nd derivatives (non-stat.)  - # elements :      81
 qpt  3.33333333E-01  3.33333333E-01  0.00000000E+00   1.0
  
 2nd derivatives (non-stat.)  - # elements :     113
 qpt  0.00000000E+00  0.00000000E+00  0.00000000E+00   1.0
  
 2nd derivatives (non-stat.)  - # elements :      81
 qpt  8.33333333E-02  0.00000000E+00  0.00000000E+00   1.0
  
 2nd derivatives (non-stat.)  - # elements :      81
 qpt  1.66666667E-01  0.00000000E+00  0.00000000E+00   1.0
  
 2nd derivatives (non-stat.)  - # elements :      81
 qpt  2.50000000E-01  0.00000000E+00  0.00000000E+00   1.0
  
 2nd derivatives (non-stat.)  - # elements :      81
 qpt  3.33333333E-01  0.00000000E+00  0.00000000E+00   1.0
  
 2nd derivatives (non-stat.)  - # elements :      81
 qpt  4.16666667E-01  0.00000000E+00  0.00000000E+00   1.0
  
 2nd derivatives (non-stat.)  - # elements :      81
 qpt  5.00000000E-01  0.00000000E+00  0.00000000E+00   1.0
  
 2nd derivatives (non-stat.)  - # elements :      81
 qpt  8.33333333E-02  8.33333333E-02  0.00000000E+00   1.0
