64   
1    

1    
  0.0100000000000000   0.0000000000000000   0.0000000000000000
  -0.1351144600    0.0000000000    0.0000000000
   0.0001872300    0.0000000000    0.0000000000
   0.0004859700    0.0000000000    0.0000000000
   0.0000605900    0.0000000000    0.0000000000
   0.0004859700    0.0000000000    0.0000000000
   0.0000605900    0.0000000000    0.0000000000
  -0.0039344900    0.0000000000    0.0000000000
   0.0002319800    0.0000000000    0.0000000000
   0.0020873700   -0.0002633000   -0.0002633000
  -0.0001796300   -0.0002731700   -0.0002731700
  -0.0005217000   -0.0004050800   -0.0003484900
   0.0002247700   -0.0002602300   -0.0002254000
  -0.0005217000   -0.0003484900   -0.0004050800
   0.0002247700   -0.0002254000   -0.0002602300
   0.0331672700   -0.0239302100   -0.0239302100
  -0.0000849100   -0.0003469700   -0.0003469700
  -0.0042995400   -0.0009668500   -0.0009668500
  -0.0000441800   -0.0000785000   -0.0000785000
  -0.0042899700   -0.0009542800    0.0009542800
  -0.0000411300   -0.0000787500    0.0000787500
  -0.0042899700    0.0009542800   -0.0009542800
  -0.0000411300    0.0000787500   -0.0000787500
  -0.0042995400    0.0009668500    0.0009668500
  -0.0000441800    0.0000785000    0.0000785000
   0.0331672700    0.0239302100    0.0239302100
  -0.0000849100    0.0003469700    0.0003469700
  -0.0005217000    0.0003484900    0.0004050800
   0.0002247700    0.0002254000    0.0002602300
  -0.0005217000    0.0004050800    0.0003484900
   0.0002247700    0.0002602300    0.0002254000
   0.0020873700    0.0002633000    0.0002633000
  -0.0001796300    0.0002731700    0.0002731700
   0.0019149400    0.0009662400    0.0019092200
   0.0018981100    0.0009552300   -0.0018962800
   0.0003306400    0.0000784700   -0.0006015900
   0.0003304400    0.0000786700    0.0006034300
   0.0019149400   -0.0009662400   -0.0019092200
   0.0018981100   -0.0009552300    0.0018962800
   0.0003306400   -0.0000784700    0.0006015900
   0.0003304400   -0.0000786700   -0.0006034300
   0.0002301500    0.0002290300   -0.0002648500
  -0.0005169200    0.0003438700   -0.0004078100
  -0.0000845700    0.0003453300   -0.0003453300
   0.0328586300    0.0233076200   -0.0233076200
  -0.0001796900    0.0002717000   -0.0002717000
   0.0020778000    0.0002613000   -0.0002613000
   0.0002301500    0.0002648500   -0.0002290300
  -0.0005169200    0.0004078100   -0.0003438700
   0.0019149400    0.0019092200    0.0009662400
   0.0018981100   -0.0018962800    0.0009552300
   0.0019149400   -0.0019092200   -0.0009662400
   0.0018981100    0.0018962800   -0.0009552300
   0.0003306400   -0.0006015900    0.0000784700
   0.0003304400    0.0006034300    0.0000786700
   0.0003306400    0.0006015900   -0.0000784700
   0.0003304400   -0.0006034300   -0.0000786700
   0.0002301500   -0.0002648500    0.0002290300
  -0.0005169200   -0.0004078100    0.0003438700
  -0.0001796900   -0.0002717000    0.0002717000
   0.0020778000   -0.0002613000    0.0002613000
  -0.0000845700   -0.0003453300    0.0003453300
   0.0328586300   -0.0233076200    0.0233076200
   0.0002301500   -0.0002290300    0.0002648500
  -0.0005169200   -0.0003438700    0.0004078100
