nqpoint: 30     
npath: 3      
segment_nqpoint:
- 10
- 10
- 10
natom: 2      
reciprocal_lattice:
- [   0.23007705,   0.13283504,   0.00000000 ] # a*
- [   0.00000000,   0.26567009,   0.00000000 ] # b*
- [   0.00000000,   0.00000000,   0.03527848 ] # c*

phonon:
- q-position: [    0.0000000,    0.0000000,    0.0000000 ]
  distance:    0.0000000
  label: '$\Gamma$'
  band:
  - # 1
    frequency:   -0.0011576799
    eigenvector:
    - # atom 1
      - [ -0.70710678118655, -0.00000000000000 ]
      - [  0.00000000000000,  0.00000000000000 ]
      - [ -0.00000000000000,  0.00000000000000 ]
    - # atom 2
      - [ -0.70710678118655,  0.00000000000000 ]
      - [ -0.00000000000000,  0.00000000000000 ]
      - [ -0.00000000000000,  0.00000000000000 ]
  - # 2
    frequency:   -0.0011576793
    eigenvector:
    - # atom 1
      - [  0.00000000000000,  0.00000000000000 ]
      - [  0.70710678118655,  0.00000000000000 ]
      - [ -0.00000001601559,  0.00000000000000 ]
    - # atom 2
      - [  0.00000000000000,  0.00000000000000 ]
      - [  0.70710678118655,  0.00000000000000 ]
      - [ -0.00000001601559,  0.00000000000000 ]
  - # 3
    frequency:    0.0008691503
    eigenvector:
    - # atom 1
      - [  0.00000000000000,  0.00000000000000 ]
      - [  0.00000001601559,  0.00000000000000 ]
      - [  0.70710678118655,  0.00000000000000 ]
    - # atom 2
      - [ -0.00000000000000,  0.00000000000000 ]
      - [  0.00000001601559,  0.00000000000000 ]
      - [  0.70710678118655,  0.00000000000000 ]
  - # 4
    frequency:   21.1529336637
    eigenvector:
    - # atom 1
      - [  0.00000000000000,  0.00000000000000 ]
      - [  0.00000000000000,  0.00000000000000 ]
      - [  0.70710678118655,  0.00000000000000 ]
    - # atom 2
      - [ -0.00000000000000,  0.00000000000000 ]
      - [ -0.00000000000000,  0.00000000000000 ]
      - [ -0.70710678118655,  0.00000000000000 ]
  - # 5
    frequency:   46.9209106340
    eigenvector:
    - # atom 1
      - [ -0.70710678118655,  0.00000000000000 ]
      - [  0.00000000000000,  0.00000000000000 ]
      - [  0.00000000000000,  0.00000000000000 ]
    - # atom 2
      - [  0.70710678118655,  0.00000000000000 ]
      - [  0.00000000000000,  0.00000000000000 ]
      - [  0.00000000000000,  0.00000000000000 ]
  - # 6
    frequency:   46.9209106340
    eigenvector:
    - # atom 1
      - [ -0.00000000000000, -0.00000000000000 ]
      - [  0.70710678118655,  0.00000000000000 ]
      - [ -0.00000000000000,  0.00000000000000 ]
    - # atom 2
      - [  0.00000000000000,  0.00000000000000 ]
      - [ -0.70710678118655,  0.00000000000000 ]
      - [ -0.00000000000000,  0.00000000000000 ]

- q-position: [    0.0555556,    0.0000000,    0.0000000 ]
  distance:    0.0147594
  band:
  - # 1
    frequency:    5.1524772839
    eigenvector:
    - # atom 1
      - [  0.61237243569578,  0.00000000000000 ]
      - [  0.35355339059329, -0.00000000000000 ]
      - [ -0.00000000000000,  0.00000000000000 ]
    - # atom 2
      - [  0.61119499573831, -0.03795625356161 ]
      - [  0.35287359531689, -0.02191405321123 ]
      - [ -0.00000000000000,  0.00000000000000 ]
  - # 2
    frequency:    3.2666311326
    eigenvector:
    - # atom 1
      - [  0.35355339059329,  0.00000000000000 ]
      - [ -0.61237243569578,  0.00000000000000 ]
      - [  0.00000000000001, -0.00000000000000 ]
    - # atom 2
      - [  0.35289154116057,  0.02162313985828 ]
      - [ -0.61122607885135, -0.03745237685372 ]
      - [  0.00000000000001, -0.00000000000000 ]
  - # 3
    frequency:    0.1674171358
    eigenvector:
    - # atom 1
      - [  0.00000000000000,  0.00000000000000 ]
      - [ -0.00000000000001, -0.00000000000000 ]
      - [ -0.70662536202092,  0.02608826841318 ]
    - # atom 2
      - [  0.00000000000000,  0.00000000000000 ]
      - [ -0.00000000000001, -0.00000000000000 ]
      - [ -0.70661171543534,  0.02645531344607 ]
  - # 4
    frequency:   21.1070467381
    eigenvector:
    - # atom 1
      - [ -0.00000000000000,  0.00000000000000 ]
      - [  0.00000000000000, -0.00000000000000 ]
      - [ -0.69743665769632,  0.11654230348411 ]
    - # atom 2
      - [ -0.00000000000000, -0.00000000000000 ]
      - [  0.00000000000000, -0.00000000000000 ]
      - [  0.69737602702488, -0.11690456334546 ]
  - # 5
    frequency:   48.0407401331
    eigenvector:
    - # atom 1
      - [ -0.61237243569579, -0.00000000000000 ]
      - [ -0.35355339059328, -0.00000000000000 ]
      - [ -0.00000000000000, -0.00000000000000 ]
    - # atom 2
      - [  0.61119499573832, -0.03795625356161 ]
      - [  0.35287359531688, -0.02191405321123 ]
      - [  0.00000000000000,  0.00000000000000 ]
  - # 6
    frequency:   47.4042559920
    eigenvector:
    - # atom 1
      - [  0.35355339059328,  0.00000000000000 ]
      - [ -0.61237243569579, -0.00000000000000 ]
      - [ -0.00000000000000, -0.00000000000000 ]
    - # atom 2
      - [ -0.35289154116056, -0.02162313985828 ]
      - [  0.61122607885135,  0.03745237685372 ]
      - [  0.00000000000000, -0.00000000000000 ]

- q-position: [    0.1111111,    0.0000000,    0.0000000 ]
  distance:    0.0295189
  band:
  - # 1
    frequency:   10.2514142565
    eigenvector:
    - # atom 1
      - [  0.61237243569580,  0.00000000000000 ]
      - [  0.35355339059327,  0.00000000000000 ]
      - [ -0.00000000000000,  0.00000000000000 ]
    - # atom 2
      - [  0.60751698623829, -0.07696175304621 ]
      - [  0.35075009554194, -0.04443388883854 ]
      - [ -0.00000000000000, -0.00000000000000 ]
  - # 2
    frequency:    6.4315906416
    eigenvector:
    - # atom 1
      - [  0.35355339059327,  0.00000000000000 ]
      - [ -0.61237243569580, -0.00000000000000 ]
      - [  0.00000000000000,  0.00000000000000 ]
    - # atom 2
      - [  0.35083305857109,  0.04377402213240 ]
      - [ -0.60766068241993, -0.07581883038496 ]
      - [  0.00000000000000,  0.00000000000000 ]
  - # 3
    frequency:    0.8228599628
    eigenvector:
    - # atom 1
      - [  0.00000000000000,  0.00000000000000 ]
      - [ -0.00000000000000,  0.00000000000000 ]
      - [ -0.70710003541376, -0.00308867574635 ]
    - # atom 2
      - [  0.00000000000000,  0.00000000000000 ]
      - [ -0.00000000000000, -0.00000000000000 ]
      - [ -0.70710673084288, -0.00026682708918 ]
  - # 4
    frequency:   20.9621405976
    eigenvector:
    - # atom 1
      - [ -0.00000000000000,  0.00000000000000 ]
      - [  0.00000000000000, -0.00000000000000 ]
      - [ -0.68792280552503,  0.16359160625954 ]
    - # atom 2
      - [ -0.00000000000000, -0.00000000000000 ]
      - [  0.00000000000000, -0.00000000000000 ]
      - [  0.68726448267015, -0.16633559709252 ]
  - # 5
    frequency:   49.5359086342
    eigenvector:
    - # atom 1
      - [ -0.61237243569579, -0.00000000000000 ]
      - [ -0.35355339059328,  0.00000000000000 ]
      - [ -0.00000000000000,  0.00000000000000 ]
    - # atom 2
      - [  0.60751698623829, -0.07696175304621 ]
      - [  0.35075009554195, -0.04443388883854 ]
      - [ -0.00000000000000,  0.00000000000000 ]
  - # 6
    frequency:   47.7942447995
    eigenvector:
    - # atom 1
      - [  0.35355339059327,  0.00000000000000 ]
      - [ -0.61237243569579,  0.00000000000000 ]
      - [ -0.00000000000000,  0.00000000000000 ]
    - # atom 2
      - [ -0.35083305857110, -0.04377402213240 ]
      - [  0.60766068241993,  0.07581883038496 ]
      - [ -0.00000000000000, -0.00000000000000 ]

- q-position: [    0.1666667,    0.0000000,    0.0000000 ]
  distance:    0.0442783
  band:
  - # 1
    frequency:   15.1902467371
    eigenvector:
    - # atom 1
      - [  0.61237243569579,  0.00000000000000 ]
      - [  0.35355339059327, -0.00000000000000 ]
      - [ -0.00000000000000,  0.00000000000000 ]
    - # atom 2
      - [  0.60033349605574, -0.12082919147910 ]
      - [  0.34660270555133, -0.06976076622642 ]
      - [  0.00000000000000,  0.00000000000000 ]
  - # 2
    frequency:    9.1956099124
    eigenvector:
    - # atom 1
      - [  0.35355339059327,  0.00000000000000 ]
      - [ -0.61237243569579,  0.00000000000000 ]
      - [ -0.00000000000000, -0.00000000000000 ]
    - # atom 2
      - [  0.34617164284957,  0.07186928194182 ]
      - [ -0.59958687355504, -0.12448124782672 ]
      - [ -0.00000000000000, -0.00000000000000 ]
  - # 3
    frequency:    1.8772075682
    eigenvector:
    - # atom 1
      - [ -0.00000000000000,  0.00000000000000 ]
      - [  0.00000000000000, -0.00000000000000 ]
      - [ -0.70166037300476, -0.08759406917606 ]
    - # atom 2
      - [ -0.00000000000000, -0.00000000000000 ]
      - [  0.00000000000000,  0.00000000000000 ]
      - [ -0.70270184178481, -0.07880432445135 ]
  - # 4
    frequency:   20.6962030320
    eigenvector:
    - # atom 1
      - [  0.00000000000000,  0.00000000000000 ]
      - [  0.00000000000000,  0.00000000000000 ]
      - [  0.53313001189358,  0.46451306808135 ]
    - # atom 2
      - [  0.00000000000000, -0.00000000000000 ]
      - [  0.00000000000000,  0.00000000000000 ]
      - [ -0.53890268625405, -0.45780333632267 ]
  - # 5
    frequency:   49.6139185359
    eigenvector:
    - # atom 1
      - [ -0.61237243569579, -0.00000000000000 ]
      - [ -0.35355339059327,  0.00000000000000 ]
      - [  0.00000000000000, -0.00000000000000 ]
    - # atom 2
      - [  0.60033349605574, -0.12082919147910 ]
      - [  0.34660270555133, -0.06976076622642 ]
      - [ -0.00000000000000,  0.00000000000000 ]
  - # 6
    frequency:   47.2271855739
    eigenvector:
    - # atom 1
      - [  0.35355339059327,  0.00000000000000 ]
      - [ -0.61237243569579,  0.00000000000000 ]
      - [  0.00000000000000, -0.00000000000000 ]
    - # atom 2
      - [ -0.34617164284957, -0.07186928194182 ]
      - [  0.59958687355504,  0.12448124782672 ]
      - [ -0.00000000000000, -0.00000000000000 ]

- q-position: [    0.2222222,    0.0000000,    0.0000000 ]
  distance:    0.0590378
  band:
  - # 1
    frequency:   19.9619894795
    eigenvector:
    - # atom 1
      - [  0.61237243569579,  0.00000000000000 ]
      - [  0.35355339059327, -0.00000000000000 ]
      - [ -0.00000000000000,  0.00000000000000 ]
    - # atom 2
      - [  0.58851030419184, -0.16927971485097 ]
      - [  0.33977658254603, -0.09773368893755 ]
      - [  0.00000000000000, -0.00000000000000 ]
  - # 2
    frequency:   11.5107270960
    eigenvector:
    - # atom 1
      - [ -0.35355339059327,  0.00000000000000 ]
      - [  0.61237243569579, -0.00000000000000 ]
      - [  0.00000000000000, -0.00000000000000 ]
    - # atom 2
      - [ -0.33699722894072, -0.10692458878236 ]
      - [  0.58369632253525,  0.18519882034945 ]
      - [  0.00000000000000, -0.00000000000000 ]
  - # 3
    frequency:    3.3037752179
    eigenvector:
    - # atom 1
      - [ -0.00000000000000,  0.00000000000000 ]
      - [  0.00000000000000,  0.00000000000000 ]
      - [ -0.59130831789781,  0.38775568749518 ]
    - # atom 2
      - [ -0.00000000000000, -0.00000000000000 ]
      - [  0.00000000000000,  0.00000000000000 ]
      - [ -0.58085889270563,  0.40324055694435 ]
  - # 4
    frequency:   20.2719266005
    eigenvector:
    - # atom 1
      - [  0.00000000000000,  0.00000000000000 ]
      - [  0.00000000000000, -0.00000000000000 ]
      - [  0.51749454016556, -0.48187073048572 ]
    - # atom 2
      - [  0.00000000000000, -0.00000000000000 ]
      - [  0.00000000000000, -0.00000000000000 ]
      - [ -0.50458470152163,  0.49537286864576 ]
  - # 5
    frequency:   48.9855731294
    eigenvector:
    - # atom 1
      - [ -0.61237243569579, -0.00000000000000 ]
      - [ -0.35355339059327,  0.00000000000000 ]
      - [  0.00000000000000, -0.00000000000000 ]
    - # atom 2
      - [  0.58851030419184, -0.16927971485097 ]
      - [  0.33977658254603, -0.09773368893755 ]
      - [ -0.00000000000000,  0.00000000000000 ]
  - # 6
    frequency:   46.4311146458
    eigenvector:
    - # atom 1
      - [  0.35355339059327,  0.00000000000000 ]
      - [ -0.61237243569579,  0.00000000000000 ]
      - [  0.00000000000000,  0.00000000000000 ]
    - # atom 2
      - [ -0.33699722894072, -0.10692458878236 ]
      - [  0.58369632253525,  0.18519882034945 ]
      - [ -0.00000000000000, -0.00000000000000 ]

- q-position: [    0.2777778,    0.0000000,    0.0000000 ]
  distance:    0.0737972
  band:
  - # 1
    frequency:   24.5300947051
    eigenvector:
    - # atom 1
      - [  0.61237243569579,  0.00000000000000 ]
      - [  0.35355339059327, -0.00000000000000 ]
      - [  0.00000000000000, -0.00000000000000 ]
    - # atom 2
      - [  0.57080580013714, -0.22176730717083 ]
      - [  0.32955488236418, -0.12803741449254 ]
      - [ -0.00000000000000,  0.00000000000000 ]
  - # 2
    frequency:   13.4155347079
    eigenvector:
    - # atom 1
      - [  0.35355339059327,  0.00000000000000 ]
      - [ -0.61237243569579,  0.00000000000000 ]
      - [ -0.00000000000000,  0.00000000000000 ]
    - # atom 2
      - [  0.32176028366734,  0.14652753957640 ]
      - [ -0.55730515916960, -0.25379314325439 ]
      - [ -0.00000000000000,  0.00000000000000 ]
  - # 3
    frequency:    5.0586128010
    eigenvector:
    - # atom 1
      - [ -0.00000000000000,  0.00000000000000 ]
      - [  0.00000000000000, -0.00000000000000 ]
      - [ -0.70580555747131,  0.04287790856159 ]
    - # atom 2
      - [ -0.00000000000000, -0.00000000000000 ]
      - [  0.00000000000000,  0.00000000000000 ]
      - [ -0.70332524699124,  0.07303147913548 ]
  - # 4
    frequency:   19.6382863902
    eigenvector:
    - # atom 1
      - [ -0.00000000000000,  0.00000000000000 ]
      - [  0.00000000000000, -0.00000000000000 ]
      - [  0.70296704852188, -0.07640241287048 ]
    - # atom 2
      - [ -0.00000000000000, -0.00000000000000 ]
      - [  0.00000000000000,  0.00000000000000 ]
      - [ -0.69905523129263,  0.10640387024169 ]
  - # 5
    frequency:   48.1680678446
    eigenvector:
    - # atom 1
      - [ -0.61237243569579, -0.00000000000000 ]
      - [ -0.35355339059327, -0.00000000000000 ]
      - [  0.00000000000000,  0.00000000000000 ]
    - # atom 2
      - [  0.57080580013714, -0.22176730717083 ]
      - [  0.32955488236418, -0.12803741449254 ]
      - [ -0.00000000000000,  0.00000000000000 ]
  - # 6
    frequency:   45.8236122447
    eigenvector:
    - # atom 1
      - [  0.35355339059327,  0.00000000000000 ]
      - [ -0.61237243569579, -0.00000000000000 ]
      - [  0.00000000000000, -0.00000000000000 ]
    - # atom 2
      - [ -0.32176028366734, -0.14652753957640 ]
      - [  0.55730515916960,  0.25379314325439 ]
      - [ -0.00000000000000, -0.00000000000000 ]

- q-position: [    0.3333333,    0.0000000,    0.0000000 ]
  distance:    0.0885567
  band:
  - # 1
    frequency:   28.8067024911
    eigenvector:
    - # atom 1
      - [ -0.61237243569579,  0.00000000000000 ]
      - [ -0.35355339059327,  0.00000000000000 ]
      - [  0.00000000000000, -0.00000000000000 ]
    - # atom 2
      - [ -0.54313576092179,  0.28284897950657 ]
      - [ -0.31357957777471,  0.16330293445813 ]
      - [ -0.00000000000000,  0.00000000000000 ]
  - # 2
    frequency:   14.8167472392
    eigenvector:
    - # atom 1
      - [  0.35355339059327,  0.00000000000000 ]
      - [ -0.61237243569579,  0.00000000000000 ]
      - [ -0.00000000000000,  0.00000000000000 ]
    - # atom 2
      - [  0.29833096048403,  0.18973307043495 ]
      - [ -0.51672438102917, -0.32862731786938 ]
      - [  0.00000000000000, -0.00000000000000 ]
  - # 3
    frequency:    7.0636430364
    eigenvector:
    - # atom 1
      - [  0.00000000000000,  0.00000000000000 ]
      - [ -0.00000000000000, -0.00000000000000 ]
      - [ -0.54661931275469,  0.44856139705016 ]
    - # atom 2
      - [  0.00000000000000, -0.00000000000000 ]
      - [ -0.00000000000000, -0.00000000000000 ]
      - [ -0.52263304645348,  0.47629266082394 ]
  - # 4
    frequency:   18.7410569975
    eigenvector:
    - # atom 1
      - [ -0.00000000000000,  0.00000000000000 ]
      - [  0.00000000000000, -0.00000000000000 ]
      - [ -0.58315976631914,  0.39990584760241 ]
    - # atom 2
      - [ -0.00000000000000, -0.00000000000000 ]
      - [  0.00000000000000,  0.00000000000000 ]
      - [  0.56164646180913, -0.42959661536991 ]
  - # 5
    frequency:   46.8516173162
    eigenvector:
    - # atom 1
      - [ -0.61237243569579,  0.00000000000000 ]
      - [ -0.35355339059327,  0.00000000000000 ]
      - [  0.00000000000000, -0.00000000000000 ]
    - # atom 2
      - [  0.54313576092179, -0.28284897950657 ]
      - [  0.31357957777471, -0.16330293445813 ]
      - [ -0.00000000000000,  0.00000000000000 ]
  - # 6
    frequency:   45.2716339608
    eigenvector:
    - # atom 1
      - [ -0.35355339059327, -0.00000000000000 ]
      - [  0.61237243569579, -0.00000000000000 ]
      - [  0.00000000000000,  0.00000000000000 ]
    - # atom 2
      - [  0.29833096048403,  0.18973307043495 ]
      - [ -0.51672438102917, -0.32862731786938 ]
      - [  0.00000000000000,  0.00000000000000 ]

- q-position: [    0.3888889,    0.0000000,    0.0000000 ]
  distance:    0.1033161
  band:
  - # 1
    frequency:   32.7566719492
    eigenvector:
    - # atom 1
      - [  0.61237243569580,  0.00000000000000 ]
      - [  0.35355339059327,  0.00000000000000 ]
      - [  0.00000000000000, -0.00000000000000 ]
    - # atom 2
      - [  0.49521875070880, -0.36021991747601 ]
      - [  0.28591467902947, -0.20797306632224 ]
      - [ -0.00000000000000,  0.00000000000000 ]
  - # 2
    frequency:   15.7844872332
    eigenvector:
    - # atom 1
      - [  0.35355339059327,  0.00000000000000 ]
      - [ -0.61237243569579,  0.00000000000000 ]
      - [  0.00000000000000, -0.00000000000000 ]
    - # atom 2
      - [  0.26595749590833,  0.23295194862926 ]
      - [ -0.46065189556702, -0.40348461074806 ]
      - [ -0.00000000000000,  0.00000000000000 ]
  - # 3
    frequency:    9.1954165086
    eigenvector:
    - # atom 1
      - [ -0.00000000000000,  0.00000000000000 ]
      - [  0.00000000000000, -0.00000000000000 ]
      - [ -0.53555539184146,  0.46171465459691 ]
    - # atom 2
      - [ -0.00000000000000, -0.00000000000000 ]
      - [  0.00000000000000,  0.00000000000000 ]
      - [ -0.52424269107233,  0.47452039034929 ]
  - # 4
    frequency:   17.5502548148
    eigenvector:
    - # atom 1
      - [ -0.00000000000000,  0.00000000000000 ]
      - [  0.00000000000000, -0.00000000000000 ]
      - [  0.56107338704429, -0.43034480867166 ]
    - # atom 2
      - [ -0.00000000000000, -0.00000000000000 ]
      - [  0.00000000000000,  0.00000000000000 ]
      - [ -0.55051122054036,  0.44377629055546 ]
  - # 5
    frequency:   45.0806685152
    eigenvector:
    - # atom 1
      - [ -0.61237243569580,  0.00000000000000 ]
      - [ -0.35355339059327, -0.00000000000001 ]
      - [ -0.00000000000000, -0.00000000000000 ]
    - # atom 2
      - [  0.49521875070880, -0.36021991747600 ]
      - [  0.28591467902947, -0.20797306632223 ]
      - [ -0.00000000000000,  0.00000000000000 ]
  - # 6
    frequency:   44.8831523658
    eigenvector:
    - # atom 1
      - [ -0.35355339059327,  0.00000000000000 ]
      - [  0.61237243569580,  0.00000000000002 ]
      - [  0.00000000000000,  0.00000000000000 ]
    - # atom 2
      - [  0.26595749590832,  0.23295194862926 ]
      - [ -0.46065189556702, -0.40348461074807 ]
      - [  0.00000000000000,  0.00000000000000 ]

- q-position: [    0.4444444,    0.0000000,    0.0000000 ]
  distance:    0.1180756
  band:
  - # 1
    frequency:   36.2271462602
    eigenvector:
    - # atom 1
      - [  0.61237243569579,  0.00000000000000 ]
      - [  0.35355339059327, -0.00000000000000 ]
      - [ -0.00000000000000, -0.00000000000000 ]
    - # atom 2
      - [  0.37379721616841, -0.48505220459735 ]
      - [  0.21581192337716, -0.28004502089530 ]
      - [ -0.00000000000000,  0.00000000000000 ]
  - # 2
    frequency:   16.3524426391
    eigenvector:
    - # atom 1
      - [ -0.35355339059327,  0.00000000000000 ]
      - [  0.61237243569579, -0.00000000000000 ]
      - [ -0.00000000000000, -0.00000000000000 ]
    - # atom 2
      - [ -0.22524346646271, -0.27251675327558 ]
      - [  0.39013312798635,  0.47201286258701 ]
      - [  0.00000000000000,  0.00000000000000 ]
  - # 3
    frequency:   11.2433277329
    eigenvector:
    - # atom 1
      - [  0.00000000000000,  0.00000000000000 ]
      - [ -0.00000000000000,  0.00000000000000 ]
      - [ -0.38079603039428, -0.59581405088833 ]
    - # atom 2
      - [  0.00000000000000,  0.00000000000000 ]
      - [ -0.00000000000000, -0.00000000000000 ]
      - [ -0.28343149072382, -0.64781678742224 ]
  - # 4
    frequency:   16.1346478084
    eigenvector:
    - # atom 1
      - [ -0.00000000000000,  0.00000000000000 ]
      - [  0.00000000000000,  0.00000000000000 ]
      - [  0.36602144621038,  0.60500272802200 ]
    - # atom 2
      - [ -0.00000000000000, -0.00000000000000 ]
      - [  0.00000000000000,  0.00000000000000 ]
      - [ -0.26740691408684, -0.65459418138153 ]
  - # 5
    frequency:   42.9639594893
    eigenvector:
    - # atom 1
      - [  0.61237243569579,  0.00000000000000 ]
      - [  0.35355339059327, -0.00000000000000 ]
      - [ -0.00000000000000,  0.00000000000000 ]
    - # atom 2
      - [ -0.37379721616841,  0.48505220459735 ]
      - [ -0.21581192337716,  0.28004502089530 ]
      - [  0.00000000000000, -0.00000000000000 ]
  - # 6
    frequency:   44.6626141788
    eigenvector:
    - # atom 1
      - [ -0.35355339059327, -0.00000000000000 ]
      - [  0.61237243569579, -0.00000000000000 ]
      - [ -0.00000000000000,  0.00000000000000 ]
    - # atom 2
      - [  0.22524346646271,  0.27251675327558 ]
      - [ -0.39013312798635, -0.47201286258701 ]
      - [  0.00000000000000,  0.00000000000000 ]

- q-position: [    0.5000000,    0.0000000,    0.0000000 ]
  distance:    0.1328350
  label: 'M'
  band:
  - # 1
    frequency:   38.3045254954
    eigenvector:
    - # atom 1
      - [  0.61237243569579,  0.00000000000000 ]
      - [  0.35355339059327, -0.00000000000000 ]
      - [  0.00000000000000,  0.00000000000000 ]
    - # atom 2
      - [ -0.30618621784790, -0.53033008588991 ]
      - [ -0.17677669529664, -0.30618621784790 ]
      - [  0.00000000000000,  0.00000000000000 ]
  - # 2
    frequency:   16.5185830307
    eigenvector:
    - # atom 1
      - [ -0.35355339059327,  0.00000000000000 ]
      - [  0.61237243569579, -0.00000000000000 ]
      - [  0.00000000000000,  0.00000000000000 ]
    - # atom 2
      - [ -0.17677669529664, -0.30618621784790 ]
      - [  0.30618621784790,  0.53033008588991 ]
      - [ -0.00000000000000, -0.00000000000000 ]
  - # 3
    frequency:   12.4314721778
    eigenvector:
    - # atom 1
      - [  0.00000000000000,  0.00000000000000 ]
      - [ -0.00000000000000,  0.00000000000000 ]
      - [  0.69684772904911,  0.12001350973580 ]
    - # atom 2
      - [  0.00000000000000,  0.00000000000000 ]
      - [ -0.00000000000000, -0.00000000000000 ]
      - [  0.24448911629601,  0.66349459079392 ]
  - # 4
    frequency:   15.1695294951
    eigenvector:
    - # atom 1
      - [  0.00000000000000,  0.00000000000000 ]
      - [ -0.00000000000000,  0.00000000000000 ]
      - [  0.69895804260688,  0.10704043476721 ]
    - # atom 2
      - [  0.00000000000000,  0.00000000000000 ]
      - [ -0.00000000000000, -0.00000000000000 ]
      - [ -0.25677928556290, -0.65883563846062 ]
  - # 5
    frequency:   41.3144294831
    eigenvector:
    - # atom 1
      - [  0.61237243569579,  0.00000000000000 ]
      - [  0.35355339059327, -0.00000000000000 ]
      - [ -0.00000000000000,  0.00000000000000 ]
    - # atom 2
      - [  0.30618621784790,  0.53033008588991 ]
      - [  0.17677669529664,  0.30618621784790 ]
      - [ -0.00000000000000, -0.00000000000000 ]
  - # 6
    frequency:   44.5720724516
    eigenvector:
    - # atom 1
      - [ -0.35355339059327, -0.00000000000000 ]
      - [  0.61237243569579, -0.00000000000000 ]
      - [  0.00000000000000,  0.00000000000000 ]
    - # atom 2
      - [  0.17677669529664,  0.30618621784790 ]
      - [ -0.30618621784790, -0.53033008588991 ]
      - [  0.00000000000000,  0.00000000000000 ]

- q-position: [    0.5000000,    0.0000000,    0.0000000 ]
  distance:    0.1328350
  label: 'M'
  band:
  - # 1
    frequency:   12.4314721778
    eigenvector:
    - # atom 1
      - [ -0.00000000000000,  0.00000000000000 ]
      - [  0.00000000000000,  0.00000000000000 ]
      - [  0.70264225555104,  0.07933385603983 ]
    - # atom 2
      - [ -0.00000000000000, -0.00000000000000 ]
      - [  0.00000000000000,  0.00000000000000 ]
      - [  0.28261599306485,  0.64817297109951 ]
  - # 2
    frequency:   15.1695294951
    eigenvector:
    - # atom 1
      - [ -0.00000000000000,  0.00000000000000 ]
      - [  0.00000000000000, -0.00000000000000 ]
      - [  0.70126546503169,  0.09070141980084 ]
    - # atom 2
      - [ -0.00000000000000, -0.00000000000000 ]
      - [  0.00000000000000,  0.00000000000000 ]
      - [ -0.27208299880900, -0.65266441741457 ]
  - # 3
    frequency:   16.5185830307
    eigenvector:
    - # atom 1
      - [ -0.35355339059327,  0.00000000000000 ]
      - [  0.61237243569579, -0.00000000000000 ]
      - [ -0.00000000000000, -0.00000000000000 ]
    - # atom 2
      - [ -0.17677669529664, -0.30618621784790 ]
      - [  0.30618621784790,  0.53033008588991 ]
      - [  0.00000000000000,  0.00000000000000 ]
  - # 4
    frequency:   38.3045254954
    eigenvector:
    - # atom 1
      - [  0.61237243569579,  0.00000000000000 ]
      - [  0.35355339059327, -0.00000000000000 ]
      - [ -0.00000000000000, -0.00000000000000 ]
    - # atom 2
      - [ -0.30618621784790, -0.53033008588991 ]
      - [ -0.17677669529664, -0.30618621784790 ]
      - [  0.00000000000000,  0.00000000000000 ]
  - # 5
    frequency:   41.3144294831
    eigenvector:
    - # atom 1
      - [  0.61237243569579,  0.00000000000000 ]
      - [  0.35355339059327, -0.00000000000000 ]
      - [ -0.00000000000000, -0.00000000000000 ]
    - # atom 2
      - [  0.30618621784790,  0.53033008588991 ]
      - [  0.17677669529664,  0.30618621784790 ]
      - [ -0.00000000000000, -0.00000000000000 ]
  - # 6
    frequency:   44.5720724516
    eigenvector:
    - # atom 1
      - [ -0.35355339059327, -0.00000000000000 ]
      - [  0.61237243569579, -0.00000000000000 ]
      - [ -0.00000000000000, -0.00000000000000 ]
    - # atom 2
      - [  0.17677669529664,  0.30618621784790 ]
      - [ -0.30618621784790, -0.53033008588991 ]
      - [  0.00000000000000,  0.00000000000000 ]

- q-position: [    0.5185185,   -0.0370370,    0.0000000 ]
  distance:    0.1413564
  band:
  - # 1
    frequency:   12.4138823361
    eigenvector:
    - # atom 1
      - [ -0.00000000000000,  0.00000000000000 ]
      - [  0.00000000000000,  0.00000000000000 ]
      - [  0.70103862765535, -0.09243831746146 ]
    - # atom 2
      - [ -0.00000000000000, -0.00000000000000 ]
      - [  0.00000000000000,  0.00000000000000 ]
      - [  0.43057324503240,  0.56089810185298 ]
  - # 2
    frequency:   15.1536610183
    eigenvector:
    - # atom 1
      - [ -0.00000000000000,  0.00000000000000 ]
      - [  0.00000000000000,  0.00000000000000 ]
      - [  0.69847035997765, -0.11017783911789 ]
    - # atom 2
      - [ -0.00000000000000, -0.00000000000000 ]
      - [  0.00000000000000,  0.00000000000000 ]
      - [ -0.44465198759901, -0.54980415597215 ]
  - # 3
    frequency:   16.8376883165
    eigenvector:
    - # atom 1
      - [ -0.35373640703734,  0.00000000000000 ]
      - [  0.61142178236957,  0.03215522321999 ]
      - [ -0.00000000000000,  0.00000000000000 ]
    - # atom 2
      - [ -0.15220287880528, -0.31931759949473 ]
      - [  0.29210418287485,  0.53809450906261 ]
      - [  0.00000000000000,  0.00000000000000 ]
  - # 4
    frequency:   38.2122274790
    eigenvector:
    - # atom 1
      - [  0.61226673463149,  0.00000000000000 ]
      - [  0.35324823683252,  0.01857764351050 ]
      - [ -0.00000000000000,  0.00000000000000 ]
    - # atom 2
      - [ -0.29209442449450, -0.53809980627718 ]
      - [ -0.18485156944464, -0.30159466662649 ]
      - [  0.00000000000000,  0.00000000000000 ]
  - # 5
    frequency:   41.2397176266
    eigenvector:
    - # atom 1
      - [  0.60972759268407,  0.00000000000000 ]
      - [  0.34590513898799,  0.09263853162367 ]
      - [ -0.00000000000000,  0.00000000000000 ]
    - # atom 2
      - [  0.23273431828485,  0.56356230744506 ]
      - [  0.21765716845705,  0.28435474277555 ]
      - [ -0.00000000000000, -0.00000000000000 ]
  - # 6
    frequency:   44.5331910930
    eigenvector:
    - # atom 1
      - [ -0.35809532630250, -0.00000000000000 ]
      - [  0.58897140565871,  0.15773528646663 ]
      - [ -0.00000000000000,  0.00000000000000 ]
    - # atom 2
      - [  0.04720680327594,  0.35497011204347 ]
      - [ -0.23400129361524, -0.56303741604507 ]
      - [  0.00000000000000,  0.00000000000000 ]

- q-position: [    0.5370370,   -0.0740741,    0.0000000 ]
  distance:    0.1498778
  band:
  - # 1
    frequency:   12.3659398438
    eigenvector:
    - # atom 1
      - [  0.00000000000000, -0.00000000000000 ]
      - [ -0.00000000000000, -0.00000000000000 ]
      - [ -0.23812579065018, -0.66580485716704 ]
    - # atom 2
      - [ -0.00000000000000,  0.00000000000000 ]
      - [ -0.00000000000000, -0.00000000000000 ]
      - [  0.45754102494462, -0.53912541258285 ]
  - # 2
    frequency:   15.1051166751
    eigenvector:
    - # atom 1
      - [ -0.00000000000000,  0.00000000000000 ]
      - [ -0.00000000000000,  0.00000000000000 ]
      - [ -0.67258986792605,  0.21822664723452 ]
    - # atom 2
      - [ -0.00000000000000, -0.00000000000000 ]
      - [  0.00000000000000,  0.00000000000000 ]
      - [  0.52528475425084,  0.47336658833470 ]
  - # 3
    frequency:   17.7287111106
    eigenvector:
    - # atom 1
      - [ -0.35438852220652, -0.00000000000000 ]
      - [  0.60803978197247,  0.06853027701059 ]
      - [  0.00000000000000, -0.00000000000000 ]
    - # atom 2
      - [ -0.12329411054029, -0.33224958536889 ]
      - [  0.27579019660358,  0.54621290975739 ]