calculator: siesta
nqpoint: 30     
npath: 3      
segment_nqpoint:
- 10
- 10
- 10
reciprocal_lattice:
- [   0.23007705,   0.13283504,   0.00000000 ] # a*
- [   0.00000000,   0.26567009,   0.00000000 ] # b*
- [   0.00000000,   0.00000000,   0.03527848 ] # c*
natom: 2      
lattice:
- [     4.346370115214287,     0.000000000000000,     0.000000000000000 ] # a
- [    -2.173185057607144,     3.764066934025073,     0.000000000000000 ] # b
- [     0.000000000000000,     0.000000000000000,    28.345892055745352 ] # c
points:
- symbol: C  # 1
  coordinates: [  0.000000000000000,  0.000000000000000,  0.000000000000000 ]
  mass: 12.010700
- symbol: C  # 2
  coordinates: [  0.666666666666667,  0.333333333333333,  0.000000000000000 ]
  mass: 12.010700
supercell_matrix:
- [  100,    0,    0 ]
- [    0,  100,    0 ]
- [    0,    0,    1 ]

phonon:
- q-position: [    0.0000000,    0.0000000,    0.0000000 ]
  distance:    0.0000000
  label: '$\Gamma$'
  band:
  - # 1
    frequency:   -0.0011576800
    eigenvector:
    - # atom 1
      - [  0.70410412330739,  0.00000000000000 ]
      - [  0.06509518831325,  0.00000000000000 ]
      - [ -0.00000000063499,  0.00000000000000 ]
    - # atom 2
      - [  0.70410412330739,  0.00000000000000 ]
      - [  0.06509518831325,  0.00000000000000 ]
      - [ -0.00000000063499,  0.00000000000000 ]
  - # 2
    frequency:   -0.0011576792
    eigenvector:
    - # atom 1
      - [ -0.06509518831325,  0.00000000000000 ]
      - [  0.70410412330739,  0.00000000000000 ]
      - [ -0.00000002272471,  0.00000000000000 ]
    - # atom 2
      - [ -0.06509518831325,  0.00000000000000 ]
      - [  0.70410412330739,  0.00000000000000 ]
      - [ -0.00000002272471,  0.00000000000000 ]
  - # 3
    frequency:    0.0008691500
    eigenvector:
    - # atom 1
      - [ -0.00000000145971,  0.00000000000000 ]
      - [  0.00000002268666,  0.00000000000000 ]
      - [  0.70710678118655,  0.00000000000000 ]
    - # atom 2
      - [ -0.00000000145971,  0.00000000000000 ]
      - [  0.00000002268666,  0.00000000000000 ]
      - [  0.70710678118655,  0.00000000000000 ]
  - # 4
    frequency:   21.1529336637
    eigenvector:
    - # atom 1
      - [  0.00000000000000,  0.00000000000000 ]
      - [  0.00000000000000,  0.00000000000000 ]
      - [  0.70710678118655,  0.00000000000000 ]
    - # atom 2
      - [  0.00000000000000,  0.00000000000000 ]
      - [  0.00000000000000,  0.00000000000000 ]
      - [ -0.70710678118655,  0.00000000000000 ]
  - # 5
    frequency:   46.9209106340
    eigenvector:
    - # atom 1
      - [  0.00000000000000, -0.00000000000000 ]
      - [  0.70710678118655,  0.00000000000000 ]
      - [  0.00000000000000,  0.00000000000000 ]
    - # atom 2
      - [  0.00000000000000,  0.00000000000000 ]
      - [ -0.70710678118655,  0.00000000000000 ]
      - [ -0.00000000000000,  0.00000000000000 ]
  - # 6
    frequency:   46.9209106340
    eigenvector:
    - # atom 1
      - [  0.70710678118655,  0.00000000000000 ]
      - [  0.00000000000000,  0.00000000000000 ]
      - [  0.00000000000000,  0.00000000000000 ]
    - # atom 2
      - [ -0.70710678118655,  0.00000000000000 ]
      - [  0.00000000000000,  0.00000000000000 ]
      - [ -0.00000000000000,  0.00000000000000 ]

- q-position: [    0.0555556,    0.0000000,    0.0000000 ]
  distance:    0.0147594
  band:
  - # 1
    frequency:    5.1524772839
    eigenvector:
    - # atom 1
      - [  0.61237243569579,  0.00000000000000 ]
      - [  0.35355339059329, -0.00000000000000 ]
      - [ -0.00000000000000, -0.00000000000000 ]
    - # atom 2
      - [  0.61119499573831, -0.03795625356161 ]
      - [  0.35287359531689, -0.02191405321123 ]
      - [ -0.00000000000000, -0.00000000000000 ]
  - # 2
    frequency:    3.2666311326
    eigenvector:
    - # atom 1
      - [  0.35355339059329,  0.00000000000000 ]
      - [ -0.61237243569579,  0.00000000000000 ]
      - [  0.00000000000000,  0.00000000000000 ]
    - # atom 2
      - [  0.35289154116056,  0.02162313985828 ]
      - [ -0.61122607885135, -0.03745237685372 ]
      - [  0.00000000000000,  0.00000000000000 ]
  - # 3
    frequency:    0.1674171358
    eigenvector:
    - # atom 1
      - [  0.00000000000000,  0.00000000000000 ]
      - [ -0.00000000000000, -0.00000000000000 ]
      - [ -0.70510699622517, -0.05314248652737 ]
    - # atom 2
      - [  0.00000000000000,  0.00000000000000 ]
      - [ -0.00000000000000, -0.00000000000000 ]
      - [ -0.70513450536399, -0.05277621950355 ]
  - # 4
    frequency:   21.1070467381
    eigenvector:
    - # atom 1
      - [  0.00000000000000,  0.00000000000000 ]
      - [ -0.00000000000000,  0.00000000000000 ]
      - [ -0.70587526013462,  0.04171471119257 ]
    - # atom 2
      - [ -0.00000000000000,  0.00000000000000 ]
      - [  0.00000000000000,  0.00000000000000 ]
      - [  0.70585349667126, -0.04208136448537 ]
  - # 5
    frequency:   47.4042559920
    eigenvector:
    - # atom 1
      - [  0.35355339059326, -0.00000000000000 ]
      - [ -0.61237243569580, -0.00000000000000 ]
      - [  0.00000000000000, -0.00000000000000 ]
    - # atom 2
      - [ -0.35289154116054, -0.02162313985829 ]
      - [  0.61122607885136,  0.03745237685372 ]
      - [ -0.00000000000000, -0.00000000000000 ]
  - # 6
    frequency:   48.0407401331
    eigenvector:
    - # atom 1
      - [ -0.61237243569580,  0.00000000000000 ]
      - [ -0.35355339059326, -0.00000000000000 ]
      - [ -0.00000000000000, -0.00000000000000 ]
    - # atom 2
      - [  0.61119499573833, -0.03795625356161 ]
      - [  0.35287359531686, -0.02191405321123 ]
      - [  0.00000000000000, -0.00000000000000 ]

- q-position: [    0.1111111,    0.0000000,    0.0000000 ]
  distance:    0.0295189
  band:
  - # 1
    frequency:   10.2514142565
    eigenvector:
    - # atom 1
      - [  0.61237243569580,  0.00000000000000 ]
      - [  0.35355339059327,  0.00000000000000 ]
      - [ -0.00000000000000,  0.00000000000000 ]
    - # atom 2
      - [  0.60751698623829, -0.07696175304621 ]
      - [  0.35075009554194, -0.04443388883854 ]
      - [ -0.00000000000000,  0.00000000000000 ]
  - # 2
    frequency:    6.4315906416
    eigenvector:
    - # atom 1
      - [  0.35355339059327,  0.00000000000000 ]
      - [ -0.61237243569580, -0.00000000000000 ]
      - [  0.00000000000000, -0.00000000000000 ]
    - # atom 2
      - [  0.35083305857109,  0.04377402213240 ]
      - [ -0.60766068241993, -0.07581883038496 ]
      - [  0.00000000000000, -0.00000000000000 ]
  - # 3
    frequency:    0.8228599628
    eigenvector:
    - # atom 1
      - [  0.00000000000000,  0.00000000000000 ]
      - [ -0.00000000000000, -0.00000000000000 ]
      - [ -0.65914541962661,  0.25598303808115 ]
    - # atom 2
      - [  0.00000000000000,  0.00000000000000 ]
      - [ -0.00000000000000, -0.00000000000000 ]
      - [ -0.65811861944188,  0.25861145130083 ]
  - # 4
    frequency:   20.9621405976
    eigenvector:
    - # atom 1
      - [  0.00000000000000,  0.00000000000000 ]
      - [  0.00000000000000,  0.00000000000000 ]
      - [ -0.66069233981195,  0.25196355314571 ]
    - # atom 2
      - [ -0.00000000000000,  0.00000000000000 ]
      - [  0.00000000000000,  0.00000000000000 ]
      - [  0.65968156786754, -0.25459817166632 ]
  - # 5
    frequency:   47.7942447995
    eigenvector:
    - # atom 1
      - [  0.35355339059327, -0.00000000000000 ]
      - [ -0.61237243569580, -0.00000000000000 ]
      - [ -0.00000000000000, -0.00000000000000 ]
    - # atom 2
      - [ -0.35083305857109, -0.04377402213240 ]
      - [  0.60766068241993,  0.07581883038496 ]
      - [ -0.00000000000000, -0.00000000000000 ]
  - # 6
    frequency:   49.5359086342
    eigenvector:
    - # atom 1
      - [ -0.61237243569580,  0.00000000000000 ]
      - [ -0.35355339059327, -0.00000000000000 ]
      - [ -0.00000000000000, -0.00000000000000 ]
    - # atom 2
      - [  0.60751698623829, -0.07696175304621 ]
      - [  0.35075009554194, -0.04443388883854 ]
      - [  0.00000000000000, -0.00000000000000 ]

- q-position: [    0.1666667,    0.0000000,    0.0000000 ]
  distance:    0.0442783
  band:
  - # 1
    frequency:   15.1902467371
    eigenvector:
    - # atom 1
      - [  0.61237243569579,  0.00000000000000 ]
      - [  0.35355339059327,  0.00000000000000 ]
      - [ -0.00000000000000,  0.00000000000000 ]
    - # atom 2
      - [  0.60033349605574, -0.12082919147910 ]
      - [  0.34660270555133, -0.06976076622642 ]
      - [  0.00000000000000, -0.00000000000000 ]
  - # 2
    frequency:    9.1956099124
    eigenvector:
    - # atom 1
      - [  0.35355339059327,  0.00000000000000 ]
      - [ -0.61237243569579, -0.00000000000000 ]
      - [ -0.00000000000000,  0.00000000000000 ]
    - # atom 2
      - [  0.34617164284957,  0.07186928194182 ]
      - [ -0.59958687355504, -0.12448124782672 ]
      - [ -0.00000000000000,  0.00000000000000 ]
  - # 3
    frequency:    1.8772075682
    eigenvector:
    - # atom 1
      - [ -0.00000000000000,  0.00000000000000 ]
      - [  0.00000000000000, -0.00000000000000 ]
      - [ -0.63238863286813,  0.31636152898098 ]
    - # atom 2
      - [ -0.00000000000000, -0.00000000000000 ]
      - [  0.00000000000000, -0.00000000000000 ]
      - [ -0.62837910170572,  0.32425253204796 ]
  - # 4
    frequency:   20.6962030320
    eigenvector:
    - # atom 1
      - [  0.00000000000000,  0.00000000000000 ]
      - [  0.00000000000000,  0.00000000000000 ]
      - [  0.66426097822241, -0.24239916008727 ]
    - # atom 2
      - [  0.00000000000000, -0.00000000000000 ]
      - [  0.00000000000000,  0.00000000000000 ]
      - [ -0.66117475802861,  0.25069491288378 ]
  - # 5
    frequency:   47.2271855739
    eigenvector:
    - # atom 1
      - [  0.35355339059327, -0.00000000000000 ]
      - [ -0.61237243569580, -0.00000000000000 ]
      - [ -0.00000000000000,  0.00000000000000 ]
    - # atom 2
      - [ -0.34617164284956, -0.07186928194182 ]
      - [  0.59958687355504,  0.12448124782672 ]
      - [ -0.00000000000000, -0.00000000000000 ]
  - # 6
    frequency:   49.6139185359
    eigenvector:
    - # atom 1
      - [ -0.61237243569580,  0.00000000000000 ]
      - [ -0.35355339059327, -0.00000000000000 ]
      - [ -0.00000000000000,  0.00000000000000 ]
    - # atom 2
      - [  0.60033349605574, -0.12082919147910 ]
      - [  0.34660270555133, -0.06976076622642 ]
      - [  0.00000000000000, -0.00000000000000 ]

- q-position: [    0.2222222,    0.0000000,    0.0000000 ]
  distance:    0.0590378
  band:
  - # 1
    frequency:   19.9619894795
    eigenvector:
    - # atom 1
      - [ -0.61237243569579,  0.00000000000000 ]
      - [ -0.35355339059327, -0.00000000000000 ]
      - [ -0.00000000000000, -0.00000000000000 ]
    - # atom 2
      - [ -0.58851030419184,  0.16927971485097 ]
      - [ -0.33977658254603,  0.09773368893755 ]
      - [  0.00000000000000,  0.00000000000000 ]
  - # 2
    frequency:   11.5107270960
    eigenvector:
    - # atom 1
      - [ -0.35355339059327,  0.00000000000000 ]
      - [  0.61237243569580,  0.00000000000000 ]
      - [ -0.00000000000000, -0.00000000000000 ]
    - # atom 2
      - [ -0.33699722894072, -0.10692458878236 ]
      - [  0.58369632253525,  0.18519882034945 ]
      - [ -0.00000000000000, -0.00000000000000 ]
  - # 3
    frequency:    3.3037752179
    eigenvector:
    - # atom 1
      - [ -0.00000000000000,  0.00000000000000 ]
      - [  0.00000000000000,  0.00000000000000 ]
      - [  0.64748266667909,  0.28419394143811 ]
    - # atom 2
      - [ -0.00000000000000, -0.00000000000000 ]
      - [  0.00000000000000,  0.00000000000000 ]
      - [  0.65476406948676,  0.26699066146429 ]
  - # 4
    frequency:   20.2719266005
    eigenvector:
    - # atom 1
      - [ -0.00000000000000,  0.00000000000000 ]
      - [ -0.00000000000000,  0.00000000000000 ]
      - [  0.60934945270585,  0.35873840676331 ]
    - # atom 2
      - [ -0.00000000000000,  0.00000000000000 ]
      - [ -0.00000000000000,  0.00000000000000 ]
      - [ -0.61861335280201, -0.34251645177283 ]
  - # 5
    frequency:   46.4311146458
    eigenvector:
    - # atom 1
      - [  0.35355339059327, -0.00000000000000 ]
      - [ -0.61237243569579, -0.00000000000000 ]
      - [  0.00000000000000,  0.00000000000000 ]
    - # atom 2
      - [ -0.33699722894072, -0.10692458878236 ]
      - [  0.58369632253525,  0.18519882034945 ]
      - [ -0.00000000000000, -0.00000000000000 ]
  - # 6
    frequency:   48.9855731294
    eigenvector:
    - # atom 1
      - [ -0.61237243569579,  0.00000000000000 ]
      - [ -0.35355339059327, -0.00000000000000 ]
      - [  0.00000000000000,  0.00000000000000 ]
    - # atom 2
      - [  0.58851030419184, -0.16927971485097 ]
      - [  0.33977658254603, -0.09773368893755 ]
      - [  0.00000000000000, -0.00000000000000 ]

- q-position: [    0.2777778,    0.0000000,    0.0000000 ]
  distance:    0.0737972
  band:
  - # 1
    frequency:   24.5300947051
    eigenvector:
    - # atom 1
      - [  0.61237243569579,  0.00000000000000 ]
      - [  0.35355339059327, -0.00000000000000 ]
      - [ -0.00000000000000, -0.00000000000000 ]
    - # atom 2
      - [  0.57080580013714, -0.22176730717083 ]
      - [  0.32955488236418, -0.12803741449254 ]
      - [ -0.00000000000000,  0.00000000000000 ]
  - # 2
    frequency:   13.4155347079
    eigenvector:
    - # atom 1
      - [ -0.35355339059327,  0.00000000000000 ]
      - [  0.61237243569579, -0.00000000000000 ]
      - [ -0.00000000000000, -0.00000000000000 ]
    - # atom 2
      - [ -0.32176028366734, -0.14652753957640 ]
      - [  0.55730515916960,  0.25379314325439 ]
      - [ -0.00000000000000, -0.00000000000000 ]
  - # 3
    frequency:    5.0586128010
    eigenvector:
    - # atom 1
      - [ -0.00000000000000,  0.00000000000000 ]
      - [  0.00000000000000, -0.00000000000000 ]
      - [  0.62036278711107,  0.33933760824257 ]
    - # atom 2
      - [ -0.00000000000000, -0.00000000000000 ]
      - [  0.00000000000000, -0.00000000000000 ]
      - [  0.63431103528217,  0.31248921664476 ]
  - # 4
    frequency:   19.6382863902
    eigenvector:
    - # atom 1
      - [ -0.00000000000000,  0.00000000000000 ]
      - [  0.00000000000000,  0.00000000000000 ]
      - [  0.24359217719060, -0.66382441293729 ]
    - # atom 2
      - [ -0.00000000000000, -0.00000000000000 ]
      - [  0.00000000000000,  0.00000000000000 ]
      - [ -0.21497223652849,  0.67363709630775 ]
  - # 5
    frequency:   45.8236122447
    eigenvector:
    - # atom 1
      - [  0.35355339059327, -0.00000000000000 ]
      - [ -0.61237243569580, -0.00000000000000 ]
      - [ -0.00000000000000, -0.00000000000000 ]
    - # atom 2
      - [ -0.32176028366733, -0.14652753957640 ]
      - [  0.55730515916960,  0.25379314325439 ]
      - [ -0.00000000000000, -0.00000000000000 ]
  - # 6
    frequency:   48.1680678446
    eigenvector:
    - # atom 1
      - [ -0.61237243569580,  0.00000000000000 ]
      - [ -0.35355339059327, -0.00000000000000 ]
      - [ -0.00000000000000,  0.00000000000000 ]
    - # atom 2
      - [  0.57080580013714, -0.22176730717083 ]
      - [  0.32955488236417, -0.12803741449254 ]
      - [  0.00000000000000, -0.00000000000000 ]

- q-position: [    0.3333333,    0.0000000,    0.0000000 ]
  distance:    0.0885567
  band:
  - # 1
    frequency:   28.8067024911
    eigenvector:
    - # atom 1
      - [ -0.61237243569579,  0.00000000000000 ]
      - [ -0.35355339059327, -0.00000000000000 ]
      - [ -0.00000000000000, -0.00000000000000 ]
    - # atom 2
      - [ -0.54313576092179,  0.28284897950657 ]
      - [ -0.31357957777471,  0.16330293445813 ]
      - [  0.00000000000000,  0.00000000000000 ]
  - # 2
    frequency:   14.8167472392
    eigenvector:
    - # atom 1
      - [ -0.35355339059327,  0.00000000000000 ]
      - [  0.61237243569579,  0.00000000000000 ]
      - [ -0.00000000000000, -0.00000000000000 ]
    - # atom 2
      - [ -0.29833096048403, -0.18973307043495 ]
      - [  0.51672438102917,  0.32862731786938 ]
      - [  0.00000000000000,  0.00000000000000 ]
  - # 3
    frequency:    7.0636430364
    eigenvector:
    - # atom 1
      - [  0.00000000000000,  0.00000000000000 ]
      - [  0.00000000000000, -0.00000000000000 ]
      - [ -0.56713159226335,  0.42232896781637 ]
    - # atom 2
      - [  0.00000000000000, -0.00000000000000 ]
      - [  0.00000000000000, -0.00000000000000 ]
      - [ -0.54447752147015,  0.45115876209348 ]
  - # 4
    frequency:   18.7410569975
    eigenvector:
    - # atom 1
      - [ -0.00000000000000,  0.00000000000000 ]
      - [  0.00000000000000, -0.00000000000000 ]
      - [  0.59189142852521,  0.38686501113229 ]
    - # atom 2
      - [ -0.00000000000000,  0.00000000000000 ]
      - [  0.00000000000000,  0.00000000000000 ]
      - [ -0.61114905808225, -0.35566392676960 ]
  - # 5
    frequency:   45.2716339608
    eigenvector:
    - # atom 1
      - [ -0.35355339059327,  0.00000000000000 ]
      - [  0.61237243569580,  0.00000000000000 ]
      - [ -0.00000000000000,  0.00000000000000 ]
    - # atom 2
      - [  0.29833096048403,  0.18973307043496 ]
      - [ -0.51672438102917, -0.32862731786939 ]
      - [  0.00000000000000,  0.00000000000000 ]
  - # 6
    frequency:   46.8516173162
    eigenvector:
    - # atom 1
      - [ -0.61237243569580,  0.00000000000000 ]
      - [ -0.35355339059327, -0.00000000000000 ]
      - [ -0.00000000000000,  0.00000000000000 ]
    - # atom 2
      - [  0.54313576092179, -0.28284897950657 ]
      - [  0.31357957777471, -0.16330293445813 ]
      - [  0.00000000000000, -0.00000000000000 ]

- q-position: [    0.3888889,    0.0000000,    0.0000000 ]
  distance:    0.1033161
  band:
  - # 1
    frequency:   32.7566719492
    eigenvector:
    - # atom 1
      - [  0.61237243569579,  0.00000000000000 ]
      - [  0.35355339059327,  0.00000000000000 ]
      - [ -0.00000000000000,  0.00000000000000 ]
    - # atom 2
      - [  0.49521875070880, -0.36021991747601 ]
      - [  0.28591467902947, -0.20797306632224 ]
      - [  0.00000000000000, -0.00000000000000 ]
  - # 2
    frequency:   15.7844872332
    eigenvector:
    - # atom 1
      - [ -0.35355339059327,  0.00000000000000 ]
      - [  0.61237243569579,  0.00000000000000 ]
      - [  0.00000000000000, -0.00000000000000 ]
    - # atom 2
      - [ -0.26595749590833, -0.23295194862926 ]
      - [  0.46065189556702,  0.40348461074806 ]
      - [ -0.00000000000000,  0.00000000000000 ]
  - # 3
    frequency:    9.1954165086
    eigenvector:
    - # atom 1
      - [ -0.00000000000000,  0.00000000000000 ]
      - [  0.00000000000000,  0.00000000000000 ]
      - [  0.70680169471897, -0.02076931251621 ]
    - # atom 2
      - [ -0.00000000000000,  0.00000000000000 ]
      - [ -0.00000000000000, -0.00000000000000 ]
      - [  0.70609348842335, -0.03784158567166 ]
  - # 4
    frequency:   17.5502548148
    eigenvector:
    - # atom 1
      - [  0.00000000000000,  0.00000000000000 ]
      - [ -0.00000000000000,  0.00000000000000 ]
      - [  0.65514234170995, -0.26606110594899 ]
    - # atom 2
      - [  0.00000000000000,  0.00000000000000 ]
      - [ -0.00000000000000, -0.00000000000000 ]
      - [ -0.64852227145791,  0.28181352597608 ]
  - # 5
    frequency:   44.8831523658
    eigenvector:
    - # atom 1
      - [ -0.35355339059324,  0.00000000000000 ]
      - [  0.61237243569581,  0.00000000000003 ]
      - [ -0.00000000000000, -0.00000000000000 ]
    - # atom 2
      - [  0.26595749590829,  0.23295194862928 ]
      - [ -0.46065189556702, -0.40348461074807 ]
      - [  0.00000000000000,  0.00000000000000 ]
  - # 6
    frequency:   45.0806685152
    eigenvector:
    - # atom 1
      - [ -0.61237243569581,  0.00000000000000 ]
      - [ -0.35355339059324, -0.00000000000002 ]
      - [  0.00000000000000,  0.00000000000000 ]
    - # atom 2
      - [  0.49521875070882, -0.36021991747599 ]
      - [  0.28591467902944, -0.20797306632224 ]
      - [  0.00000000000000, -0.00000000000000 ]

- q-position: [    0.4444444,    0.0000000,    0.0000000 ]
  distance:    0.1180756
  band:
  - # 1
    frequency:   36.2271462602
    eigenvector:
    - # atom 1
      - [  0.61237243569579,  0.00000000000000 ]
      - [  0.35355339059327,  0.00000000000000 ]
      - [  0.00000000000000, -0.00000000000000 ]
    - # atom 2
      - [  0.37379721616841, -0.48505220459735 ]
      - [  0.21581192337716, -0.28004502089530 ]
      - [  0.00000000000000, -0.00000000000000 ]
  - # 2
    frequency:   16.3524426391
    eigenvector:
    - # atom 1
      - [  0.35355339059327,  0.00000000000000 ]
      - [ -0.61237243569579, -0.00000000000000 ]
      - [ -0.00000000000001,  0.00000000000001 ]
    - # atom 2
      - [  0.22524346646271,  0.27251675327558 ]
      - [ -0.39013312798635, -0.47201286258701 ]
      - [  0.00000000000001, -0.00000000000000 ]
  - # 3
    frequency:   11.2433277329
    eigenvector:
    - # atom 1
      - [ -0.00000000000000,  0.00000000000000 ]
      - [  0.00000000000000, -0.00000000000000 ]
      - [ -0.29485298393398,  0.64269877692838 ]
    - # atom 2
      - [ -0.00000000000000, -0.00000000000000 ]
      - [  0.00000000000000,  0.00000000000000 ]
      - [ -0.39128186094655,  0.58898090401489 ]
  - # 4
    frequency:   16.1346478084
    eigenvector:
    - # atom 1
      - [ -0.00000000000000,  0.00000000000000 ]
      - [  0.00000000000001, -0.00000000000000 ]
      - [ -0.49176102782577,  0.50810539409825 ]
    - # atom 2
      - [ -0.00000000000000, -0.00000000000000 ]
      - [  0.00000000000000,  0.00000000000001 ]
      - [  0.56484435967149, -0.42538317943626 ]
  - # 5
    frequency:   44.6626141788
    eigenvector:
    - # atom 1
      - [ -0.35355339059328,  0.00000000000000 ]
      - [  0.61237243569579, -0.00000000000000 ]
      - [ -0.00000000000000,  0.00000000000000 ]
    - # atom 2
      - [  0.22524346646271,  0.27251675327558 ]
      - [ -0.39013312798635, -0.47201286258701 ]
      - [  0.00000000000000,  0.00000000000000 ]
  - # 6
    frequency:   42.9639594893
    eigenvector:
    - # atom 1
      - [  0.61237243569579, -0.00000000000000 ]
      - [  0.35355339059328, -0.00000000000000 ]
      - [  0.00000000000000,  0.00000000000000 ]
    - # atom 2
      - [ -0.37379721616841,  0.48505220459735 ]
      - [ -0.21581192337717,  0.28004502089530 ]
      - [ -0.00000000000000,  0.00000000000000 ]

- q-position: [    0.5000000,    0.0000000,    0.0000000 ]
  distance:    0.1328350
  label: 'M'
  band:
  - # 1
    frequency:   38.3045254954
    eigenvector:
    - # atom 1
      - [ -0.61237243569579,  0.00000000000000 ]
      - [ -0.35355339059327, -0.00000000000000 ]
      - [ -0.00000000000000,  0.00000000000000 ]
    - # atom 2
      - [  0.30618621784790,  0.53033008588991 ]
      - [  0.17677669529664,  0.30618621784790 ]
      - [  0.00000000000000,  0.00000000000000 ]
  - # 2
    frequency:   16.5185830307
    eigenvector:
    - # atom 1
      - [ -0.35355339059327,  0.00000000000000 ]
      - [  0.61237243569579,  0.00000000000000 ]
      - [  0.00000000000000, -0.00000000000000 ]
    - # atom 2
      - [ -0.17677669529664, -0.30618621784790 ]
      - [  0.30618621784790,  0.53033008588991 ]
      - [ -0.00000000000000, -0.00000000000000 ]
  - # 3
    frequency:   12.4314721778
    eigenvector:
    - # atom 1
      - [  0.00000000000000, -0.00000000000000 ]
      - [ -0.00000000000000,  0.00000000000000 ]
      - [  0.69621071279060, -0.12365534115278 ]
    - # atom 2
      - [  0.00000000000000,  0.00000000000000 ]
      - [ -0.00000000000000, -0.00000000000000 ]
      - [  0.45519402314724,  0.54110849308714 ]
  - # 4
    frequency:   15.1695294951
    eigenvector:
    - # atom 1
      - [ -0.00000000000000,  0.00000000000000 ]
      - [  0.00000000000000, -0.00000000000000 ]
      - [ -0.70578168536525,  0.04326907212992 ]
    - # atom 2
      - [ -0.00000000000000, -0.00000000000000 ]
      - [  0.00000000000000,  0.00000000000000 ]
      - [  0.39036295834532,  0.58959033298714 ]
  - # 5
    frequency:   44.5720724516
    eigenvector:
    - # atom 1
      - [  0.35355339059327,  0.00000000000000 ]
      - [ -0.61237243569579, -0.00000000000000 ]
      - [ -0.00000000000000, -0.00000000000000 ]
    - # atom 2
      - [ -0.17677669529664, -0.30618621784790 ]
      - [  0.30618621784790,  0.53033008588991 ]
      - [ -0.00000000000000, -0.00000000000000 ]
  - # 6
    frequency:   41.3144294831
    eigenvector:
    - # atom 1
      - [ -0.61237243569579,  0.00000000000000 ]
      - [ -0.35355339059327, -0.00000000000000 ]
      - [ -0.00000000000000, -0.00000000000000 ]
    - # atom 2
      - [ -0.30618621784790, -0.53033008588991 ]
      - [ -0.17677669529664, -0.30618621784790 ]
      - [ -0.00000000000000, -0.00000000000000 ]

- q-position: [    0.5000000,    0.0000000,    0.0000000 ]
  distance:    0.1328350
  label: 'M'
  band:
  - # 1
    frequency:   12.4314721778
    eigenvector:
    - # atom 1
      - [ -0.00000000000000,  0.00000000000000 ]
      - [  0.00000000000000,  0.00000000000000 ]
      - [ -0.70676160348987,  0.02209153304839 ]
    - # atom 2
      - [ -0.00000000000000, -0.00000000000000 ]
      - [  0.00000000000000,  0.00000000000000 ]
      - [ -0.37251263057338, -0.60102773651746 ]
  - # 2
    frequency:   15.1695294951
    eigenvector:
    - # atom 1
      - [  0.00000000000000,  0.00000000000000 ]
      - [ -0.00000000000000, -0.00000000000000 ]
      - [  0.70685601490177, -0.01883014065770 ]
    - # atom 2
      - [  0.00000000000000,  0.00000000000000 ]
      - [ -0.00000000000000, -0.00000000000000 ]
      - [ -0.36973538761729, -0.60274019539391 ]
  - # 3
    frequency:   16.5185830307
    eigenvector:
    - # atom 1
      - [ -0.35355339059327,  0.00000000000000 ]
      - [  0.61237243569579,  0.00000000000000 ]
      - [  0.00000000000000, -0.00000000000000 ]
    - # atom 2
      - [ -0.17677669529664, -0.30618621784790 ]
      - [  0.30618621784790,  0.53033008588991 ]
      - [ -0.00000000000000, -0.00000000000000 ]
  - # 4
    frequency:   38.3045254954
    eigenvector:
    - # atom 1
      - [  0.61237243569579,  0.00000000000000 ]
      - [  0.35355339059327,  0.00000000000000 ]
      - [  0.00000000000000, -0.00000000000000 ]
    - # atom 2
      - [ -0.30618621784790, -0.53033008588991 ]
      - [ -0.17677669529664, -0.30618621784790 ]
      - [ -0.00000000000000, -0.00000000000000 ]
  - # 5
    frequency:   41.3144294831
    eigenvector:
    - # atom 1
      - [  0.61237243569579, -0.00000000000000 ]
      - [  0.35355339059327,  0.00000000000000 ]
      - [  0.00000000000000,  0.00000000000000 ]
    - # atom 2
      - [  0.30618621784790,  0.53033008588991 ]
      - [  0.17677669529664,  0.30618621784790 ]
      - [  0.00000000000000,  0.00000000000000 ]
  - # 6
    frequency:   44.5720724516
    eigenvector:
    - # atom 1
      - [ -0.35355339059328,  0.00000000000000 ]
      - [  0.61237243569579,  0.00000000000000 ]
      - [  0.00000000000000,  0.00000000000000 ]
    - # atom 2
      - [  0.17677669529664,  0.30618621784790 ]
      - [ -0.30618621784790, -0.53033008588991 ]
      - [  0.00000000000000,  0.00000000000000 ]

- q-position: [    0.5185185,   -0.0370370,    0.0000000 ]
  distance:    0.1413564
  band:
  - # 1
    frequency:   12.4138823361
    eigenvector:
    - # atom 1
      - [ -0.00000000000000,  0.00000000000000 ]
      - [  0.00000000000000,  0.00000000000000 ]
      - [ -0.69212622931535,  0.14478011843382 ]
    - # atom 2
      - [ -0.00000000000000, -0.00000000000000 ]
      - [  0.00000000000000,  0.00000000000000 ]
      - [ -0.47144637518430, -0.52700883799571 ]
  - # 2
    frequency:   15.1536610183
    eigenvector:
    - # atom 1
      - [ -0.00000000000000,  0.00000000000000 ]
      - [  0.00000000000000,  0.00000000000000 ]
      - [ -0.69741971648153,  0.11664364133044 ]
    - # atom 2
      - [ -0.00000000000000, -0.00000000000000 ]
      - [  0.00000000000000,  0.00000000000000 ]
      - [  0.44972621482286,  0.54566137090791 ]
  - # 3
    frequency:   16.8376883165
    eigenvector:
    - # atom 1
      - [  0.35373640703734,  0.00000000000000 ]
      - [ -0.61142178236957, -0.03215522321999 ]
      - [ -0.00000000000000,  0.00000000000000 ]
    - # atom 2
      - [  0.15220287880528,  0.31931759949473 ]
      - [ -0.29210418287485, -0.53809450906261 ]
      - [  0.00000000000000,  0.00000000000000 ]
  - # 4
    frequency:   38.2122274790
    eigenvector:
    - # atom 1
      - [  0.61226673463149,  0.00000000000000 ]
      - [  0.35324823683252,  0.01857764351050 ]
      - [  0.00000000000000, -0.00000000000000 ]
    - # atom 2
      - [ -0.29209442449450, -0.53809980627718 ]
      - [ -0.18485156944464, -0.30159466662649 ]
      - [ -0.00000000000000, -0.00000000000000 ]
  - # 5
    frequency:   41.2397176266
    eigenvector:
    - # atom 1
      - [  0.60972759268407, -0.00000000000000 ]
      - [  0.34590513898799,  0.09263853162367 ]
      - [  0.00000000000000, -0.00000000000000 ]
    - # atom 2
      - [  0.23273431828484,  0.56356230744506 ]
      - [  0.21765716845705,  0.28435474277555 ]
      - [  0.00000000000000,  0.00000000000000 ]
  - # 6
    frequency:   44.5331910930
    eigenvector:
    - # atom 1
      - [ -0.35809532630250,  0.00000000000000 ]
      - [  0.58897140565871,  0.15773528646663 ]
      - [  0.00000000000000, -0.00000000000000 ]
    - # atom 2
      - [  0.04720680327594,  0.35497011204347 ]
      - [ -0.23400129361524, -0.56303741604507 ]
      - [  0.00000000000000,  0.00000000000000 ]

- q-position: [    0.5370370,   -0.0740741,    0.0000000 ]
  distance:    0.1498778
  band:
  - # 1
    frequency:   12.3659398438
    eigenvector:
    - # atom 1
      - [  0.00000000000000,  0.00000000000000 ]
      - [ -0.00000000000000, -0.00000000000000 ]
      - [ -0.70674902112299, -0.02249046779629 ]
    - # atom 2
      - [  0.00000000000000,  0.00000000000000 ]
      - [ -0.00000000000000, -0.00000000000000 ]
      - [ -0.33389719410693, -0.62330784029043 ]
  - # 2
    frequency:   15.1051166751
    eigenvector:
    - # atom 1
      - [ -0.00000000000000,  0.00000000000000 ]