natom:  200
displacements:
- atom:    1
  direction:
    [   1.0000000000000000,  0.0000000000000000,  1.0000000000000000 ]
  displacement:
    [   0.0167522119367723,  0.0000000000000000,  0.0109253556109384 ]
<phonopy.structure.cells.Supercell instance at 0x107cc7680>