natom:  200
displacements:
- atom:    1
  direction:
    [   1.0000000000000000,  0.0000000000000000,  1.0000000000000000 ]
  displacement:
    [   0.0167522119367723,  0.0000000000000000,  0.0109253556109384 ]
lattice:
- [   43.463701152142875,   0.000000000000000,   0.000000000000000 ]
- [  -21.731850576071437,  37.640669340250732,   0.000000000000000 ]
- [    0.000000000000000,   0.000000000000000,  28.345892055745352 ]
atoms:
- symbol: C  # 1
  position: [   0.00000000000000,  0.00000000000000,  0.00000000000000 ]
- symbol: C  # 2
  position: [   0.10000000000000,  0.00000000000000,  0.00000000000000 ]
- symbol: C  # 3
  position: [   0.20000000000000,  0.00000000000000,  0.00000000000000 ]
- symbol: C  # 4
  position: [   0.30000000000000,  0.00000000000000,  0.00000000000000 ]
- symbol: C  # 5
  position: [   0.40000000000000,  0.00000000000000,  0.00000000000000 ]
- symbol: C  # 6
  position: [   0.50000000000000,  0.00000000000000,  0.00000000000000 ]
- symbol: C  # 7
  position: [   0.60000000000000,  0.00000000000000,  0.00000000000000 ]
- symbol: C  # 8
  position: [   0.70000000000000,  0.00000000000000,  0.00000000000000 ]
- symbol: C  # 9
  position: [   0.80000000000000,  0.00000000000000,  0.00000000000000 ]
- symbol: C  # 10
  position: [   0.90000000000000,  0.00000000000000,  0.00000000000000 ]
- symbol: C  # 11
  position: [   0.00000000000000,  0.10000000000000,  0.00000000000000 ]
- symbol: C  # 12
  position: [   0.10000000000000,  0.10000000000000,  0.00000000000000 ]
- symbol: C  # 13
  position: [   0.20000000000000,  0.10000000000000,  0.00000000000000 ]
- symbol: C  # 14
  position: [   0.30000000000000,  0.10000000000000,  0.00000000000000 ]
- symbol: C  # 15
  position: [   0.40000000000000,  0.10000000000000,  0.00000000000000 ]
- symbol: C  # 16
  position: [   0.50000000000000,  0.10000000000000,  0.00000000000000 ]
- symbol: C  # 17
  position: [   0.60000000000000,  0.10000000000000,  0.00000000000000 ]
- symbol: C  # 18
  position: [   0.70000000000000,  0.10000000000000,  0.00000000000000 ]
- symbol: C  # 19
  position: [   0.80000000000000,  0.10000000000000,  0.00000000000000 ]
- symbol: C  # 20
  position: [   0.90000000000000,  0.10000000000000,  0.00000000000000 ]
- symbol: C  # 21
  position: [   0.00000000000000,  0.20000000000000,  0.00000000000000 ]
- symbol: C  # 22
  position: [   0.10000000000000,  0.20000000000000,  0.00000000000000 ]
- symbol: C  # 23
  position: [   0.20000000000000,  0.20000000000000,  0.00000000000000 ]
- symbol: C  # 24
  position: [   0.30000000000000,  0.20000000000000,  0.00000000000000 ]
- symbol: C  # 25
  position: [   0.40000000000000,  0.20000000000000,  0.00000000000000 ]
- symbol: C  # 26
  position: [   0.50000000000000,  0.20000000000000,  0.00000000000000 ]
- symbol: C  # 27
  position: [   0.60000000000000,  0.20000000000000,  0.00000000000000 ]
- symbol: C  # 28
  position: [   0.70000000000000,  0.20000000000000,  0.00000000000000 ]
- symbol: C  # 29
  position: [   0.80000000000000,  0.20000000000000,  0.00000000000000 ]
- symbol: C  # 30
  position: [   0.90000000000000,  0.20000000000000,  0.00000000000000 ]
- symbol: C  # 31
  position: [   0.00000000000000,  0.30000000000000,  0.00000000000000 ]
- symbol: C  # 32
  position: [   0.10000000000000,  0.30000000000000,  0.00000000000000 ]
- symbol: C  # 33
  position: [   0.20000000000000,  0.30000000000000,  0.00000000000000 ]
- symbol: C  # 34
  position: [   0.30000000000000,  0.30000000000000,  0.00000000000000 ]
- symbol: C  # 35
  position: [   0.40000000000000,  0.30000000000000,  0.00000000000000 ]
- symbol: C  # 36
  position: [   0.50000000000000,  0.30000000000000,  0.00000000000000 ]
- symbol: C  # 37
  position: [   0.60000000000000,  0.30000000000000,  0.00000000000000 ]
- symbol: C  # 38
  position: [   0.70000000000000,  0.30000000000000,  0.00000000000000 ]
- symbol: C  # 39
  position: [   0.80000000000000,  0.30000000000000,  0.00000000000000 ]
- symbol: C  # 40
  position: [   0.90000000000000,  0.30000000000000,  0.00000000000000 ]
- symbol: C  # 41
  position: [   0.00000000000000,  0.40000000000000,  0.00000000000000 ]
- symbol: C  # 42
  position: [   0.10000000000000,  0.40000000000000,  0.00000000000000 ]
- symbol: C  # 43
  position: [   0.20000000000000,  0.40000000000000,  0.00000000000000 ]
- symbol: C  # 44
  position: [   0.30000000000000,  0.40000000000000,  0.00000000000000 ]
- symbol: C  # 45
  position: [   0.40000000000000,  0.40000000000000,  0.00000000000000 ]
- symbol: C  # 46
  position: [   0.50000000000000,  0.40000000000000,  0.00000000000000 ]
- symbol: C  # 47
  position: [   0.60000000000000,  0.40000000000000,  0.00000000000000 ]
- symbol: C  # 48
  position: [   0.70000000000000,  0.40000000000000,  0.00000000000000 ]
- symbol: C  # 49
  position: [   0.80000000000000,  0.40000000000000,  0.00000000000000 ]
- symbol: C  # 50
  position: [   0.90000000000000,  0.40000000000000,  0.00000000000000 ]
- symbol: C  # 51
  position: [   0.00000000000000,  0.50000000000000,  0.00000000000000 ]
- symbol: C  # 52
  position: [   0.10000000000000,  0.50000000000000,  0.00000000000000 ]
- symbol: C  # 53
  position: [   0.20000000000000,  0.50000000000000,  0.00000000000000 ]
- symbol: C  # 54
  position: [   0.30000000000000,  0.50000000000000,  0.00000000000000 ]
- symbol: C  # 55
  position: [   0.40000000000000,  0.50000000000000,  0.00000000000000 ]
- symbol: C  # 56
  position: [   0.50000000000000,  0.50000000000000,  0.00000000000000 ]
- symbol: C  # 57
  position: [   0.60000000000000,  0.50000000000000,  0.00000000000000 ]
- symbol: C  # 58
  position: [   0.70000000000000,  0.50000000000000,  0.00000000000000 ]
- symbol: C  # 59
  position: [   0.80000000000000,  0.50000000000000,  0.00000000000000 ]
- symbol: C  # 60
  position: [   0.90000000000000,  0.50000000000000,  0.00000000000000 ]
- symbol: C  # 61
  position: [   0.00000000000000,  0.60000000000000,  0.00000000000000 ]
- symbol: C  # 62
  position: [   0.10000000000000,  0.60000000000000,  0.00000000000000 ]
- symbol: C  # 63
  position: [   0.20000000000000,  0.60000000000000,  0.00000000000000 ]
- symbol: C  # 64
  position: [   0.30000000000000,  0.60000000000000,  0.00000000000000 ]
- symbol: C  # 65
  position: [   0.40000000000000,  0.60000000000000,  0.00000000000000 ]
- symbol: C  # 66
  position: [   0.50000000000000,  0.60000000000000,  0.00000000000000 ]
- symbol: C  # 67
  position: [   0.60000000000000,  0.60000000000000,  0.00000000000000 ]
- symbol: C  # 68
  position: [   0.70000000000000,  0.60000000000000,  0.00000000000000 ]
- symbol: C  # 69
  position: [   0.80000000000000,  0.60000000000000,  0.00000000000000 ]
- symbol: C  # 70
  position: [   0.90000000000000,  0.60000000000000,  0.00000000000000 ]
- symbol: C  # 71
  position: [   0.00000000000000,  0.70000000000000,  0.00000000000000 ]
- symbol: C  # 72
  position: [   0.10000000000000,  0.70000000000000,  0.00000000000000 ]
- symbol: C  # 73
  position: [   0.20000000000000,  0.70000000000000,  0.00000000000000 ]
- symbol: C  # 74
  position: [   0.30000000000000,  0.70000000000000,  0.00000000000000 ]
- symbol: C  # 75
  position: [   0.40000000000000,  0.70000000000000,  0.00000000000000 ]
- symbol: C  # 76
  position: [   0.50000000000000,  0.70000000000000,  0.00000000000000 ]
- symbol: C  # 77
  position: [   0.60000000000000,  0.70000000000000,  0.00000000000000 ]
- symbol: C  # 78
  position: [   0.70000000000000,  0.70000000000000,  0.00000000000000 ]
- symbol: C  # 79
  position: [   0.80000000000000,  0.70000000000000,  0.00000000000000 ]
- symbol: C  # 80
  position: [   0.90000000000000,  0.70000000000000,  0.00000000000000 ]
- symbol: C  # 81
  position: [   0.00000000000000,  0.80000000000000,  0.00000000000000 ]
- symbol: C  # 82
  position: [   0.10000000000000,  0.80000000000000,  0.00000000000000 ]
- symbol: C  # 83
  position: [   0.20000000000000,  0.80000000000000,  0.00000000000000 ]
- symbol: C  # 84
  position: [   0.30000000000000,  0.80000000000000,  0.00000000000000 ]
- symbol: C  # 85
  position: [   0.40000000000000,  0.80000000000000,  0.00000000000000 ]
- symbol: C  # 86
  position: [   0.50000000000000,  0.80000000000000,  0.00000000000000 ]
- symbol: C  # 87
  position: [   0.60000000000000,  0.80000000000000,  0.00000000000000 ]
- symbol: C  # 88
  position: [   0.70000000000000,  0.80000000000000,  0.00000000000000 ]
- symbol: C  # 89
  position: [   0.80000000000000,  0.80000000000000,  0.00000000000000 ]
- symbol: C  # 90
  position: [   0.90000000000000,  0.80000000000000,  0.00000000000000 ]
- symbol: C  # 91
  position: [   0.00000000000000,  0.90000000000000,  0.00000000000000 ]
- symbol: C  # 92
  position: [   0.10000000000000,  0.90000000000000,  0.00000000000000 ]
- symbol: C  # 93
  position: [   0.20000000000000,  0.90000000000000,  0.00000000000000 ]
- symbol: C  # 94
  position: [   0.30000000000000,  0.90000000000000,  0.00000000000000 ]
- symbol: C  # 95
  position: [   0.40000000000000,  0.90000000000000,  0.00000000000000 ]
- symbol: C  # 96
  position: [   0.50000000000000,  0.90000000000000,  0.00000000000000 ]
- symbol: C  # 97
  position: [   0.60000000000000,  0.90000000000000,  0.00000000000000 ]
- symbol: C  # 98
  position: [   0.70000000000000,  0.90000000000000,  0.00000000000000 ]
- symbol: C  # 99
  position: [   0.80000000000000,  0.90000000000000,  0.00000000000000 ]
- symbol: C  # 100
  position: [   0.90000000000000,  0.90000000000000,  0.00000000000000 ]
- symbol: C  # 101
  position: [   0.06666666666667,  0.03333333333333,  0.00000000000000 ]
- symbol: C  # 102
  position: [   0.16666666666667,  0.03333333333333,  0.00000000000000 ]
- symbol: C  # 103
  position: [   0.26666666666667,  0.03333333333333,  0.00000000000000 ]
- symbol: C  # 104
  position: [   0.36666666666667,  0.03333333333333,  0.00000000000000 ]
- symbol: C  # 105
  position: [   0.46666666666667,  0.03333333333333,  0.00000000000000 ]
- symbol: C  # 106
  position: [   0.56666666666667,  0.03333333333333,  0.00000000000000 ]
- symbol: C  # 107
  position: [   0.66666666666667,  0.03333333333333,  0.00000000000000 ]
- symbol: C  # 108
  position: [   0.76666666666667,  0.03333333333333,  0.00000000000000 ]
- symbol: C  # 109
  position: [   0.86666666666667,  0.03333333333333,  0.00000000000000 ]
- symbol: C  # 110
  position: [   0.96666666666667,  0.03333333333333,  0.00000000000000 ]
- symbol: C  # 111
  position: [   0.06666666666667,  0.13333333333333,  0.00000000000000 ]
- symbol: C  # 112
  position: [   0.16666666666667,  0.13333333333333,  0.00000000000000 ]
- symbol: C  # 113
  position: [   0.26666666666667,  0.13333333333333,  0.00000000000000 ]
- symbol: C  # 114
  position: [   0.36666666666667,  0.13333333333333,  0.00000000000000 ]
- symbol: C  # 115
  position: [   0.46666666666667,  0.13333333333333,  0.00000000000000 ]
- symbol: C  # 116
  position: [   0.56666666666667,  0.13333333333333,  0.00000000000000 ]
- symbol: C  # 117
  position: [   0.66666666666667,  0.13333333333333,  0.00000000000000 ]
- symbol: C  # 118
  position: [   0.76666666666667,  0.13333333333333,  0.00000000000000 ]
- symbol: C  # 119
  position: [   0.86666666666667,  0.13333333333333,  0.00000000000000 ]
- symbol: C  # 120
  position: [   0.96666666666667,  0.13333333333333,  0.00000000000000 ]
- symbol: C  # 121
  position: [   0.06666666666667,  0.23333333333333,  0.00000000000000 ]
- symbol: C  # 122
  position: [   0.16666666666667,  0.23333333333333,  0.00000000000000 ]
- symbol: C  # 123
  position: [   0.26666666666667,  0.23333333333333,  0.00000000000000 ]
- symbol: C  # 124
  position: [   0.36666666666667,  0.23333333333333,  0.00000000000000 ]
- symbol: C  # 125
  position: [   0.46666666666667,  0.23333333333333,  0.00000000000000 ]
- symbol: C  # 126
  position: [   0.56666666666667,  0.23333333333333,  0.00000000000000 ]
- symbol: C  # 127
  position: [   0.66666666666667,  0.23333333333333,  0.00000000000000 ]
- symbol: C  # 128
  position: [   0.76666666666667,  0.23333333333333,  0.00000000000000 ]
- symbol: C  # 129
  position: [   0.86666666666667,  0.23333333333333,  0.00000000000000 ]
- symbol: C  # 130
  position: [   0.96666666666667,  0.23333333333333,  0.00000000000000 ]
- symbol: C  # 131
  position: [   0.06666666666667,  0.33333333333333,  0.00000000000000 ]
- symbol: C  # 132
  position: [   0.16666666666667,  0.33333333333333,  0.00000000000000 ]
- symbol: C  # 133
  position: [   0.26666666666667,  0.33333333333333,  0.00000000000000 ]
- symbol: C  # 134
  position: [   0.36666666666667,  0.33333333333333,  0.00000000000000 ]
- symbol: C  # 135
  position: [   0.46666666666667,  0.33333333333333,  0.00000000000000 ]
- symbol: C  # 136
  position: [   0.56666666666667,  0.33333333333333,  0.00000000000000 ]
- symbol: C  # 137
  position: [   0.66666666666667,  0.33333333333333,  0.00000000000000 ]
- symbol: C  # 138
  position: [   0.76666666666667,  0.33333333333333,  0.00000000000000 ]
- symbol: C  # 139
  position: [   0.86666666666667,  0.33333333333333,  0.00000000000000 ]
- symbol: C  # 140
  position: [   0.96666666666667,  0.33333333333333,  0.00000000000000 ]
- symbol: C  # 141
  position: [   0.06666666666667,  0.43333333333333,  0.00000000000000 ]
- symbol: C  # 142
  position: [   0.16666666666667,  0.43333333333333,  0.00000000000000 ]
- symbol: C  # 143
  position: [   0.26666666666667,  0.43333333333333,  0.00000000000000 ]
- symbol: C  # 144
  position: [   0.36666666666667,  0.43333333333333,  0.00000000000000 ]
- symbol: C  # 145
  position: [   0.46666666666667,  0.43333333333333,  0.00000000000000 ]
- symbol: C  # 146
  position: [   0.56666666666667,  0.43333333333333,  0.00000000000000 ]
- symbol: C  # 147
  position: [   0.66666666666667,  0.43333333333333,  0.00000000000000 ]
- symbol: C  # 148
  position: [   0.76666666666667,  0.43333333333333,  0.00000000000000 ]
- symbol: C  # 149
  position: [   0.86666666666667,  0.43333333333333,  0.00000000000000 ]
- symbol: C  # 150
  position: [   0.96666666666667,  0.43333333333333,  0.00000000000000 ]
- symbol: C  # 151
  position: [   0.06666666666667,  0.53333333333333,  0.00000000000000 ]
- symbol: C  # 152
  position: [   0.16666666666667,  0.53333333333333,  0.00000000000000 ]
- symbol: C  # 153
  position: [   0.26666666666667,  0.53333333333333,  0.00000000000000 ]
- symbol: C  # 154
  position: [   0.36666666666667,  0.53333333333333,  0.00000000000000 ]
- symbol: C  # 155
  position: [   0.46666666666667,  0.53333333333333,  0.00000000000000 ]
- symbol: C  # 156
  position: [   0.56666666666667,  0.53333333333333,  0.00000000000000 ]
- symbol: C  # 157
  position: [   0.66666666666667,  0.53333333333333,  0.00000000000000 ]
- symbol: C  # 158
  position: [   0.76666666666667,  0.53333333333333,  0.00000000000000 ]
- symbol: C  # 159
  position: [   0.86666666666667,  0.53333333333333,  0.00000000000000 ]
- symbol: C  # 160
  position: [   0.96666666666667,  0.53333333333333,  0.00000000000000 ]
- symbol: C  # 161
  position: [   0.06666666666667,  0.63333333333333,  0.00000000000000 ]
- symbol: C  # 162
  position: [   0.16666666666667,  0.63333333333333,  0.00000000000000 ]
- symbol: C  # 163
  position: [   0.26666666666667,  0.63333333333333,  0.00000000000000 ]
- symbol: C  # 164
  position: [   0.36666666666667,  0.63333333333333,  0.00000000000000 ]
- symbol: C  # 165
  position: [   0.46666666666667,  0.63333333333333,  0.00000000000000 ]
- symbol: C  # 166
  position: [   0.56666666666667,  0.63333333333333,  0.00000000000000 ]
- symbol: C  # 167
  position: [   0.66666666666667,  0.63333333333333,  0.00000000000000 ]
- symbol: C  # 168
  position: [   0.76666666666667,  0.63333333333333,  0.00000000000000 ]
- symbol: C  # 169
  position: [   0.86666666666667,  0.63333333333333,  0.00000000000000 ]
- symbol: C  # 170
  position: [   0.96666666666667,  0.63333333333333,  0.00000000000000 ]
- symbol: C  # 171
  position: [   0.06666666666667,  0.73333333333333,  0.00000000000000 ]
- symbol: C  # 172
  position: [   0.16666666666667,  0.73333333333333,  0.00000000000000 ]
- symbol: C  # 173
  position: [   0.26666666666667,  0.73333333333333,  0.00000000000000 ]
- symbol: C  # 174
  position: [   0.36666666666667,  0.73333333333333,  0.00000000000000 ]
- symbol: C  # 175
  position: [   0.46666666666667,  0.73333333333333,  0.00000000000000 ]
- symbol: C  # 176
  position: [   0.56666666666667,  0.73333333333333,  0.00000000000000 ]
- symbol: C  # 177
  position: [   0.66666666666667,  0.73333333333333,  0.00000000000000 ]
- symbol: C  # 178
  position: [   0.76666666666667,  0.73333333333333,  0.00000000000000 ]
- symbol: C  # 179
  position: [   0.86666666666667,  0.73333333333333,  0.00000000000000 ]
- symbol: C  # 180
  position: [   0.96666666666667,  0.73333333333333,  0.00000000000000 ]
- symbol: C  # 181
  position: [   0.06666666666667,  0.83333333333333,  0.00000000000000 ]
- symbol: C  # 182
  position: [   0.16666666666667,  0.83333333333333,  0.00000000000000 ]
- symbol: C  # 183
  position: [   0.26666666666667,  0.83333333333333,  0.00000000000000 ]
- symbol: C  # 184
  position: [   0.36666666666667,  0.83333333333333,  0.00000000000000 ]
- symbol: C  # 185
  position: [   0.46666666666667,  0.83333333333333,  0.00000000000000 ]
- symbol: C  # 186
  position: [   0.56666666666667,  0.83333333333333,  0.00000000000000 ]
- symbol: C  # 187
  position: [   0.66666666666667,  0.83333333333333,  0.00000000000000 ]
- symbol: C  # 188
  position: [   0.76666666666667,  0.83333333333333,  0.00000000000000 ]
- symbol: C  # 189
  position: [   0.86666666666667,  0.83333333333333,  0.00000000000000 ]
- symbol: C  # 190
  position: [   0.96666666666667,  0.83333333333333,  0.00000000000000 ]
- symbol: C  # 191
  position: [   0.06666666666667,  0.93333333333333,  0.00000000000000 ]
- symbol: C  # 192
  position: [   0.16666666666667,  0.93333333333333,  0.00000000000000 ]
- symbol: C  # 193
  position: [   0.26666666666667,  0.93333333333333,  0.00000000000000 ]
- symbol: C  # 194
  position: [   0.36666666666667,  0.93333333333333,  0.00000000000000 ]
- symbol: C  # 195
  position: [   0.46666666666667,  0.93333333333333,  0.00000000000000 ]
- symbol: C  # 196
  position: [   0.56666666666667,  0.93333333333333,  0.00000000000000 ]
- symbol: C  # 197
  position: [   0.66666666666667,  0.93333333333333,  0.00000000000000 ]
- symbol: C  # 198
  position: [   0.76666666666667,  0.93333333333333,  0.00000000000000 ]
- symbol: C  # 199
  position: [   0.86666666666667,  0.93333333333333,  0.00000000000000 ]
- symbol: C  # 200
  position: [   0.96666666666667,  0.93333333333333,  0.00000000000000 ]
