200  
1    

1    
  0.0086074937085002   0.0000000000000000   0.0050902899778037
  -0.2916963025   -0.0011855745   -0.0261910358
   0.0173794907   -0.0007320736   -0.0006604191
   0.0003674360   -0.0000025068   -0.0000514151
   0.0004700814    0.0000820111    0.0000023735
   0.0002935969   -0.0001035074    0.0000003882
   0.0001621288   -0.0000007477   -0.0000001956
   0.0002927108    0.0001022319    0.0000004117
   0.0004704019   -0.0000822056    0.0000022955
   0.0003628271   -0.0000065900   -0.0000525021
   0.0170648561    0.0007059018   -0.0006070900
  -0.0036103494   -0.0127004928   -0.0006279361
  -0.0035914035    0.0127835766   -0.0006392630
   0.0022774467    0.0008155183    0.0001234440
   0.0006600338   -0.0004409011   -0.0000058682
   0.0001580738    0.0000303856   -0.0000000423
   0.0002767399    0.0000475090    0.0000000545
   0.0002768056   -0.0000482767    0.0000000559
   0.0001580424   -0.0000322223   -0.0000000493
   0.0006538149    0.0004370745   -0.0000058496
   0.0022564028   -0.0008084794    0.0001240056
  -0.0007786729   -0.0006551424   -0.0000518745
   0.0008594104    0.0000054471    0.0001237089
  -0.0007768037    0.0006624588   -0.0000520441
   0.0001037431    0.0009303838   -0.0000058420
   0.0004952274    0.0001472725    0.0000003183
   0.0002605774   -0.0000803095   -0.0000000604
   0.0001609313   -0.0000004165   -0.0000000298
   0.0002598145    0.0000788586   -0.0000000605
   0.0004922846   -0.0001470016    0.0000003156
   0.0001007525   -0.0009259317   -0.0000058758
   0.0002868150   -0.0000231984    0.0000023090
  -0.0000445235   -0.0008415842   -0.0000059047
  -0.0000432894    0.0008444608   -0.0000058036
   0.0002876491    0.0000233470    0.0000023605
   0.0000605697    0.0000593494   -0.0000000491
   0.0001528805    0.0001803661   -0.0000000598
   0.0002425958    0.0000401426   -0.0000000166
   0.0002417262   -0.0000408903   -0.0000000163
   0.0001523059   -0.0001798481   -0.0000000598
   0.0000604021   -0.0000595548   -0.0000000429
   0.0001373401   -0.0001926155    0.0000004030
   0.0000306465   -0.0000422826   -0.0000000391
   0.0002388828    0.0000002947    0.0000003155
   0.0000305420    0.0000424251   -0.0000000529
   0.0001377868    0.0001929947    0.0000003971
   0.0002066503    0.0000156550    0.0000000551
   0.0001278347    0.0000186046   -0.0000000306
   0.0001719383    0.0000003326   -0.0000000166
   0.0001283403   -0.0000192957   -0.0000000294
   0.0002058019   -0.0000161573    0.0000000546
   0.0000976360   -0.0000376507   -0.0000001947
   0.0001860758   -0.0000046622    0.0000000540
   0.0001190596   -0.0001607643   -0.0000000610
   0.0001196181    0.0001608872   -0.0000000597
   0.0001865652    0.0000042572    0.0000000554
   0.0000971993    0.0000370157   -0.0000001965
   0.0001862208    0.0000772754    0.0000000553
   0.0001200840   -0.0000368078   -0.0000000603
   0.0001185666    0.0000364814   -0.0000000606
   0.0001862160   -0.0000768745    0.0000000546
   0.0001366105    0.0000128798    0.0000003914
   0.0002060346   -0.0000884188    0.0000000552
   0.0001283555   -0.0000191816   -0.0000000289
   0.0001720131   -0.0000002889   -0.0000000171
   0.0001279241    0.0000187564   -0.0000000298
   0.0002063576    0.0000887102    0.0000000545
   0.0001383134   -0.0000131971    0.0000004087
   0.0000303940    0.0000699082   -0.0000000518
   0.0002389568    0.0000013770    0.0000003164
   0.0000309607   -0.0000709954   -0.0000000394
   0.0002874044   -0.0001872301    0.0000023485
   0.0000604369   -0.0000881335   -0.0000000411
   0.0001517164    0.0000171189   -0.0000000621
   0.0002417135   -0.0000405364   -0.0000000160
   0.0002425425    0.0000404621   -0.0000000178
   0.0001533685   -0.0000177903   -0.0000000582
   0.0000601505    0.0000869937   -0.0000000519
   0.0002875322    0.0001885692    0.0000023218
  -0.0000408708   -0.0002025591   -0.0000058329
  -0.0000471766    0.0002039018   -0.0000058854
  -0.0007791988   -0.0006638972   -0.0000513380
   0.0000984214    0.0001192332   -0.0000059345
   0.0004927190   -0.0001465735    0.0000003272
   0.0002604841   -0.0001182941   -0.0000000617
   0.0001609457   -0.0000007136   -0.0000000299
   0.0002598662    0.0001174948   -0.0000000591
   0.0004948907    0.0001477755    0.0000003049
   0.0001063859   -0.0001182053   -0.0000057734
  -0.0007779692    0.0006589072   -0.0000526010
   0.0008604881    0.0000090167    0.0001237224
  -0.0036287176   -0.0113271208   -0.0006544997
   0.0022621152   -0.0008070853    0.0001245054
   0.0006577810   -0.0006089605   -0.0000058843
   0.0001578345   -0.0000041912   -0.0000000477
   0.0002764710    0.0000245079    0.0000000559
   0.0002769838   -0.0000250979    0.0000000538
   0.0001581569    0.0000021219   -0.0000000443
   0.0006552991    0.0006063043   -0.0000058233
   0.0022757114    0.0008205232    0.0001229188
  -0.0035755431    0.0112768001   -0.0006125161
   0.1138153306    0.0426178374    0.0104968651
  -0.0019629217   -0.0032502450   -0.0010341376
  -0.0002166649    0.0001896873    0.0000423148
  -0.0004128522   -0.0000675975    0.0000043753
  -0.0001868780   -0.0000511386   -0.0000011746
  -0.0001864128    0.0000481755   -0.0000011804
  -0.0004125020    0.0000657156    0.0000044400
  -0.0002197505   -0.0001900374    0.0000421886
  -0.0019437836    0.0032231522   -0.0010356758
   0.1122821958   -0.0414193259    0.0108813535
   0.0101375870   -0.0000210514    0.0011032046
  -0.0037333994   -0.0022289095   -0.0010319213
  -0.0017502868   -0.0010226561    0.0001241016
  -0.0002429857   -0.0002188498   -0.0000137012
  -0.0002149725    0.0000542599    0.0000004747
  -0.0003033875   -0.0000014961    0.0000003395
  -0.0002154104   -0.0000565825    0.0000004698
  -0.0002408979    0.0002143553   -0.0000137289
  -0.0017357810    0.0010123880    0.0001244616
  -0.0037031649    0.0022120178   -0.0010378801
   0.0001897127    0.0009265887   -0.0000190903
   0.0001889748   -0.0009342694   -0.0000188322
   0.0002788200   -0.0000994871    0.0000419660
  -0.0005471680   -0.0000436260   -0.0000136770
  -0.0004320586   -0.0001880774    0.0000030094
  -0.0001841923   -0.0000488260   -0.0000004241
  -0.0001838763    0.0000458291   -0.0000004252
  -0.0004297738    0.0001836921    0.0000030238
  -0.0005435899    0.0000395546   -0.0000137522
   0.0002804683    0.0000957012    0.0000425389
  -0.0003266229    0.0000256851   -0.0000055228
   0.0004985330   -0.0000021623    0.0000052122
  -0.0003277578   -0.0000298752   -0.0000055326
  -0.0001585777   -0.0002156481    0.0000044088
  -0.0000845117   -0.0000216194    0.0000004681
  -0.0002437835   -0.0000146062   -0.0000004226
  -0.0002646607   -0.0000022959    0.0000002797
  -0.0002428598    0.0000115664   -0.0000004264
  -0.0000842820    0.0000183861    0.0000004761
  -0.0001579189    0.0002115396    0.0000044069
  -0.0000448672    0.0000026985    0.0000008723
  -0.0001092715    0.0001741885   -0.0000003133
  -0.0001091152   -0.0001782074   -0.0000003125
  -0.0000449287   -0.0000059042    0.0000008694
  -0.0002209633   -0.0000316383   -0.0000011745
  -0.0001614612   -0.0000840342    0.0000003395
  -0.0001611161    0.0000325658   -0.0000004242
  -0.0001615857   -0.0000358724   -0.0000004253
  -0.0001612996    0.0000798633    0.0000003389
  -0.0002201426    0.0000284521   -0.0000011812
  -0.0001255469    0.0000926369   -0.0000000029
  -0.0001865375    0.0000113883   -0.0000000487
  -0.0000300970   -0.0000015070    0.0000000008
  -0.0001871078   -0.0000147411   -0.0000000489
  -0.0001255760   -0.0000965970   -0.0000000017
  -0.0001342486    0.0000179435   -0.0000011771
  -0.0001809755   -0.0000768141    0.0000004668
  -0.0001089417   -0.0000030621    0.0000030168
  -0.0001799933    0.0000742775    0.0000004779
  -0.0001348063   -0.0000211138   -0.0000011779
  -0.0001971418    0.0000914045    0.0000008715
  -0.0001452039   -0.0000125407   -0.0000000483
  -0.0001333879    0.0000465288   -0.0000000267
  -0.0001330381   -0.0000501595   -0.0000000270
  -0.0001448962    0.0000096154   -0.0000000486
  -0.0001982696   -0.0000939006    0.0000008704
  -0.0000430774   -0.0001495218    0.0000044407
  -0.0001693575    0.0001730497   -0.0000136917
  -0.0001707804   -0.0001775365   -0.0000137386
  -0.0000423853    0.0001443439    0.0000043753
  -0.0001655916   -0.0000679108   -0.0000055199
  -0.0000544124    0.0001424678   -0.0000003143
  -0.0002012041    0.0000978534    0.0000000005
  -0.0002169120   -0.0000011397   -0.0000000270
  -0.0002025433   -0.0001005464    0.0000000012
  -0.0000550675   -0.0001471899   -0.0000003120
  -0.0001646121    0.0000638664   -0.0000055352
  -0.0000507026   -0.0002876527    0.0000419038
   0.0000194200   -0.0000096310    0.0001242844
  -0.0000477035    0.0002871016    0.0000426017
   0.0003193297    0.0008525419   -0.0000191529
  -0.0003235499    0.0004757411    0.0000052217
  -0.0003599262   -0.0000322642   -0.0000003138
  -0.0001679767   -0.0000256886   -0.0000000485
  -0.0001673660    0.0000225383   -0.0000000480
  -0.0003601641    0.0000306520   -0.0000003129
  -0.0003285870   -0.0004764747    0.0000052043
   0.0003137375   -0.0008636923   -0.0000187680
   0.0018904119    0.0010066129   -0.0010327070
   0.0018901202   -0.0010333072   -0.0010372089
  -0.0016272944    0.0068291473    0.0011033964
  -0.0012953072   -0.0000715696   -0.0000190254
  -0.0002136677   -0.0000953001   -0.0000055249
  -0.0002047615    0.0000869792    0.0000008706
  -0.0002893887   -0.0000011283   -0.0000000025
  -0.0002057070   -0.0000893657    0.0000008716
  -0.0002128023    0.0000918043   -0.0000055308
  -0.0012966714    0.0000762355   -0.0000188980
  -0.0017039745   -0.0067998838    0.0011029932
   0.0402749596    0.0001848041    0.0106916378
